
                                 *****************
                                 * O   R   C   A *
                                 *****************

                                            #,                                       
                                            ###                                      
                                            ####                                     
                                            #####                                    
                                            ######                                   
                                           ########,                                 
                                     ,,################,,,,,                         
                               ,,#################################,,                 
                          ,,##########################################,,             
                       ,#########################################, ''#####,          
                    ,#############################################,,   '####,        
                  ,##################################################,,,,####,       
                ,###########''''           ''''###############################       
              ,#####''   ,,,,##########,,,,          '''####'''          '####       
            ,##' ,,,,###########################,,,                        '##       
           ' ,,###''''                  '''############,,,                           
         ,,##''                                '''############,,,,        ,,,,,,###''
      ,#''                                            '''#######################'''  
     '                                                          ''''####''''         
             ,#######,   #######,   ,#######,      ##                                
            ,#'     '#,  ##    ##  ,#'     '#,    #''#        ######   ,####,        
            ##       ##  ##   ,#'  ##            #'  '#       #        #'  '#        
            ##       ##  #######   ##           ,######,      #####,   #    #        
            '#,     ,#'  ##    ##  '#,     ,#' ,#      #,         ##   #,  ,#        
             '#######'   ##     ##  '#######'  #'      '#     #####' # '####'        



                  #######################################################
                  #                        -***-                        #
                  #          Department of theory and spectroscopy      #
                  #    Directorship and core code : Frank Neese         #
                  #        Max Planck Institute fuer Kohlenforschung    #
                  #                Kaiser Wilhelm Platz 1               #
                  #                 D-45470 Muelheim/Ruhr               #
                  #                      Germany                        #
                  #                                                     #
                  #                  All rights reserved                #
                  #                        -***-                        #
                  #######################################################


                         Program Version 5.0.4 -  RELEASE  -


 With contributions from (in alphabetic order):
   Daniel Aravena         : Magnetic Suceptibility
   Michael Atanasov       : Ab Initio Ligand Field Theory (pilot matlab implementation)
   Alexander A. Auer      : GIAO ZORA, VPT2 properties, NMR spectrum
   Ute Becker             : Parallelization
   Giovanni Bistoni       : ED, misc. LED, open-shell LED, HFLD
   Martin Brehm           : Molecular dynamics
   Dmytro Bykov           : SCF Hessian
   Vijay G. Chilkuri      : MRCI spin determinant printing, contributions to CSF-ICE
   Dipayan Datta          : RHF DLPNO-CCSD density
   Achintya Kumar Dutta   : EOM-CC, STEOM-CC
   Dmitry Ganyushin       : Spin-Orbit,Spin-Spin,Magnetic field MRCI
   Miquel Garcia          : C-PCM and meta-GGA Hessian, CC/C-PCM, Gaussian charge scheme
   Yang Guo               : DLPNO-NEVPT2, F12-NEVPT2, CIM, IAO-localization
   Andreas Hansen         : Spin unrestricted coupled pair/coupled cluster methods
   Benjamin Helmich-Paris : MC-RPA, TRAH-SCF, COSX integrals
   Lee Huntington         : MR-EOM, pCC
   Robert Izsak           : Overlap fitted RIJCOSX, COSX-SCS-MP3, EOM
   Marcus Kettner         : VPT2
   Christian Kollmar      : KDIIS, OOCD, Brueckner-CCSD(T), CCSD density, CASPT2, CASPT2-K
   Simone Kossmann        : Meta GGA functionals, TD-DFT gradient, OOMP2, MP2 Hessian
   Martin Krupicka        : Initial AUTO-CI
   Lucas Lang             : DCDCAS
   Marvin Lechner         : AUTO-CI (C++ implementation), FIC-MRCC
   Dagmar Lenk            : GEPOL surface, SMD
   Dimitrios Liakos       : Extrapolation schemes; Compound Job, initial MDCI parallelization
   Dimitrios Manganas     : Further ROCIS development; embedding schemes
   Dimitrios Pantazis     : SARC Basis sets
   Anastasios Papadopoulos: AUTO-CI, single reference methods and gradients
   Taras Petrenko         : DFT Hessian,TD-DFT gradient, ASA, ECA, R-Raman, ABS, FL, XAS/XES, NRVS
   Peter Pinski           : DLPNO-MP2, DLPNO-MP2 Gradient
   Christoph Reimann      : Effective Core Potentials
   Marius Retegan         : Local ZFS, SOC
   Christoph Riplinger    : Optimizer, TS searches, QM/MM, DLPNO-CCSD(T), (RO)-DLPNO pert. Triples
   Tobias Risthaus        : Range-separated hybrids, TD-DFT gradient, RPA, STAB
   Michael Roemelt        : Original ROCIS implementation
   Masaaki Saitow         : Open-shell DLPNO-CCSD energy and density
   Barbara Sandhoefer     : DKH picture change effects
   Avijit Sen             : IP-ROCIS
   Kantharuban Sivalingam : CASSCF convergence, NEVPT2, FIC-MRCI
   Bernardo de Souza      : ESD, SOC TD-DFT
   Georgi Stoychev        : AutoAux, RI-MP2 NMR, DLPNO-MP2 response
   Willem Van den Heuvel  : Paramagnetic NMR
   Boris Wezisla          : Elementary symmetry handling
   Frank Wennmohs         : Technical directorship


 We gratefully acknowledge several colleagues who have allowed us to
 interface, adapt or use parts of their codes:
   Stefan Grimme, W. Hujo, H. Kruse, P. Pracht,  : VdW corrections, initial TS optimization,
                  C. Bannwarth, S. Ehlert          DFT functionals, gCP, sTDA/sTD-DF
   Ed Valeev, F. Pavosevic, A. Kumar             : LibInt (2-el integral package), F12 methods
   Garnet Chan, S. Sharma, J. Yang, R. Olivares  : DMRG
   Ulf Ekstrom                                   : XCFun DFT Library
   Mihaly Kallay                                 : mrcc  (arbitrary order and MRCC methods)
   Jiri Pittner, Ondrej Demel                    : Mk-CCSD
   Frank Weinhold                                : gennbo (NPA and NBO analysis)
   Christopher J. Cramer and Donald G. Truhlar   : smd solvation model
   Lars Goerigk                                  : TD-DFT with DH, B97 family of functionals
   V. Asgeirsson, H. Jonsson                     : NEB implementation
   FAccTs GmbH                                   : IRC, NEB, NEB-TS, DLPNO-Multilevel, CI-OPT
                                                   MM, QMMM, 2- and 3-layer-ONIOM, Crystal-QMMM,
                                                   LR-CPCM, SF, NACMEs, symmetry and pop. for TD-DFT,
                                                   nearIR, NL-DFT gradient (VV10), updates on ESD,
                                                   ML-optimized integration grids
   S Lehtola, MJT Oliveira, MAL Marques          : LibXC Library
   Liviu Ungur et al                             : ANISO software


 Your calculation uses the libint2 library for the computation of 2-el integrals
 For citations please refer to: http://libint.valeyev.net

 Your ORCA version has been built with support for libXC version: 5.1.0
 For citations please refer to: https://tddft.org/programs/libxc/

 This ORCA versions uses:
   CBLAS   interface :  Fast vector & matrix operations
   LAPACKE interface :  Fast linear algebra routines
   SCALAPACK package :  Parallel linear algebra routines
   Shared memory     :  Shared parallel matrices
   BLAS/LAPACK       :  OpenBLAS 0.3.15  USE64BITINT DYNAMIC_ARCH NO_AFFINITY Barcelona SINGLE_THREADED
        Core in use  :  Barcelona
   Copyright (c) 2011-2014, The OpenBLAS Project


================================================================================

----- Orbital basis set information -----
Your calculation utilizes the basis: def2-SVP
   F. Weigend and R. Ahlrichs, Phys. Chem. Chem. Phys. 7, 3297 (2005).

----- AuxJ basis set information -----
Your calculation utilizes the auxiliary basis: def2/J
   F. Weigend, Phys. Chem. Chem. Phys. 8, 1057 (2006).

================================================================================
                                        WARNINGS
                       Please study these warnings very carefully!
================================================================================


WARNING: Geometry Optimization
  ===> : Switching off AutoStart
         For restart on a previous wavefunction, please use MOREAD

INFO   : the flag for use of the SHARK integral package has been found!

================================================================================
                                       INPUT FILE
================================================================================
NAME = acetone-opt_5.inp
|  1> # Generated by MoleditPy ORCA Input Generator Pro Plugin
|  2> %pal nprocs 4 end
|  3> %maxcore 2000
|  4> 
|  5> ! B3LYP def2-SVP RIJCOSX Def2/J Opt Freq
|  6> 
|  7> * xyz 0 1
|  8>   C       -1.265992     0.241506     0.092371
|  9>   C        0.068495     0.155258    -0.597576
| 10>   O        0.204122     0.462684    -1.780855
| 11>   C        1.228925    -0.325526     0.231017
| 12>   H       -2.022220     0.601195    -0.610859
| 13>   H       -1.200942     0.940754     0.929593
| 14>   H       -1.558302    -0.748971     0.449621
| 15>   H        1.026390    -1.336406     0.593257
| 16>   H        2.135769    -0.343814    -0.379795
| 17>   H        1.383755     0.353319     1.073226
| 18> *
| 19> 
| 20>                          ****END OF INPUT****
================================================================================

                       *****************************
                       * Geometry Optimization Run *
                       *****************************

Geometry optimization settings:
Update method            Update   .... BFGS
Choice of coordinates    CoordSys .... Z-matrix Internals
Initial Hessian          InHess   .... Almoef's Model

Convergence Tolerances:
Energy Change            TolE     ....  5.0000e-06 Eh
Max. Gradient            TolMAXG  ....  3.0000e-04 Eh/bohr
RMS Gradient             TolRMSG  ....  1.0000e-04 Eh/bohr
Max. Displacement        TolMAXD  ....  4.0000e-03 bohr
RMS Displacement         TolRMSD  ....  2.0000e-03 bohr
Strict Convergence                ....  False
------------------------------------------------------------------------------
                        ORCA OPTIMIZATION COORDINATE SETUP
------------------------------------------------------------------------------

The optimization will be done in new redundant internal coordinates
Making redundant internal coordinates   ...  (new redundants) done
Evaluating the initial hessian          ...  (Almloef) done
Evaluating the coordinates              ...  done
Calculating the B-matrix                .... done
Calculating the G-matrix                .... done
Diagonalizing the G-matrix              .... done
The first mode is                       ....   12
The number of degrees of freedom        ....   24

    -----------------------------------------------------------------
                    Redundant Internal Coordinates


    -----------------------------------------------------------------
         Definition                    Initial Value    Approx d2E/dq
    -----------------------------------------------------------------
      1. B(C   1,C   0)                  1.5048         0.409861   
      2. B(O   2,C   1)                  1.2301         1.007036   
      3. B(C   3,C   1)                  1.5048         0.409863   
      4. B(H   4,C   0)                  1.0935         0.355471   
      5. B(H   5,C   0)                  1.0928         0.356470   
      6. B(H   6,C   0)                  1.0928         0.356472   
      7. B(H   7,C   3)                  1.0928         0.356472   
      8. B(H   8,C   3)                  1.0935         0.355470   
      9. B(H   9,C   3)                  1.0928         0.356471   
     10. A(H   5,C   0,H   6)          110.2092         0.289916   
     11. A(H   4,C   0,H   6)          108.8683         0.289789   
     12. A(C   1,C   0,H   4)          109.7118         0.328606   
     13. A(C   1,C   0,H   5)          109.5830         0.328758   
     14. A(C   1,C   0,H   6)          109.5831         0.328758   
     15. A(H   4,C   0,H   5)          108.8683         0.289788   
     16. A(O   2,C   1,C   3)          121.6364         0.436782   
     17. A(C   0,C   1,C   3)          116.7272         0.375109   
     18. A(C   0,C   1,O   2)          121.6364         0.436782   
     19. A(H   7,C   3,H   9)          110.2092         0.289916   
     20. A(C   1,C   3,H   9)          109.5831         0.328758   
     21. A(H   7,C   3,H   8)          108.8683         0.289788   
     22. A(C   1,C   3,H   8)          109.7118         0.328606   
     23. A(H   8,C   3,H   9)          108.8682         0.289788   
     24. A(C   1,C   3,H   7)          109.5830         0.328758   
     25. D(C   3,C   1,C   0,H   5)     60.5231         0.012442   
     26. D(C   3,C   1,C   0,H   4)   -180.0000         0.012442   
     27. D(O   2,C   1,C   0,H   4)     -0.0002         0.012442   
     28. D(C   3,C   1,C   0,H   6)    -60.5230         0.012442   
     29. D(O   2,C   1,C   0,H   6)    119.4768         0.012442   
     30. D(O   2,C   1,C   0,H   5)   -119.4772         0.012442   
     31. D(H   7,C   3,C   1,C   0)     60.5228         0.012442   
     32. D(H   9,C   3,C   1,O   2)    119.4770         0.012442   
     33. D(H   9,C   3,C   1,C   0)    -60.5233         0.012442   
     34. D(H   8,C   3,C   1,O   2)      0.0001         0.012442   
     35. D(H   8,C   3,C   1,C   0)    179.9998         0.012442   
     36. D(H   7,C   3,C   1,O   2)   -119.4769         0.012442   
    -----------------------------------------------------------------

Number of atoms                         .... 10
Number of degrees of freedom            .... 36

         *************************************************************
         *                GEOMETRY OPTIMIZATION CYCLE   1            *
         *************************************************************
---------------------------------
CARTESIAN COORDINATES (ANGSTROEM)
---------------------------------
  C     -1.265992    0.241506    0.092371
  C      0.068495    0.155258   -0.597576
  O      0.204122    0.462684   -1.780855
  C      1.228925   -0.325526    0.231017
  H     -2.022220    0.601195   -0.610859
  H     -1.200942    0.940754    0.929593
  H     -1.558302   -0.748971    0.449621
  H      1.026390   -1.336406    0.593257
  H      2.135769   -0.343814   -0.379795
  H      1.383755    0.353319    1.073226

----------------------------
CARTESIAN COORDINATES (A.U.)
----------------------------
  NO LB      ZA    FRAG     MASS         X           Y           Z
   0 C     6.0000    0    12.011   -2.392378    0.456380    0.174556
   1 C     6.0000    0    12.011    0.129437    0.293395   -1.129255
   2 O     8.0000    0    15.999    0.385735    0.874346   -3.365328
   3 C     6.0000    0    12.011    2.322332   -0.615155    0.436559
   4 H     1.0000    0     1.008   -3.821442    1.136094   -1.154356
   5 H     1.0000    0     1.008   -2.269451    1.777767    1.756676
   6 H     1.0000    0     1.008   -2.944764   -1.415350    0.849661
   7 H     1.0000    0     1.008    1.939596   -2.525441    1.121093
   8 H     1.0000    0     1.008    4.036018   -0.649714   -0.717709
   9 H     1.0000    0     1.008    2.614918    0.667676    2.028103

--------------------------------
INTERNAL COORDINATES (ANGSTROEM)
--------------------------------
 C      0   0   0     0.000000000000     0.00000000     0.00000000
 C      1   0   0     1.504766139133     0.00000000     0.00000000
 O      2   1   0     1.230062852234   121.63642483     0.00000000
 C      2   1   3     1.504764898316   116.72715135   180.00027554
 H      1   2   3     1.093521557906   109.71180463     0.00000000
 H      1   2   3     1.092757953660   109.58302381   240.52278429
 H      1   2   3     1.092756782696   109.58310597   119.47675267
 H      4   2   1     1.092756431335   109.58298021    60.52282821
 H      4   2   1     1.093522652085   109.71178438   179.99981900
 H      4   2   1     1.092757458271   109.58308222   299.47673855

---------------------------
INTERNAL COORDINATES (A.U.)
---------------------------
 C      0   0   0     0.000000000000     0.00000000     0.00000000
 C      1   0   0     2.843595898560     0.00000000     0.00000000
 O      2   1   0     2.324481918232   121.63642483     0.00000000
 C      2   1   3     2.843593553756   116.72715135   180.00027554
 H      1   2   3     2.066456265981   109.71180463     0.00000000
 H      1   2   3     2.065013263082   109.58302381   240.52278429
 H      1   2   3     2.065011050281   109.58310597   119.47675267
 H      4   2   1     2.065010386305   109.58298021    60.52282821
 H      4   2   1     2.066458333681   109.71178438   179.99981900
 H      4   2   1     2.065012326931   109.58308222   299.47673855

---------------------
BASIS SET INFORMATION
---------------------
There are 3 groups of distinct atoms

 Group   1 Type C   : 7s4p1d contracted to 3s2p1d pattern {511/31/1}
 Group   2 Type O   : 7s4p1d contracted to 3s2p1d pattern {511/31/1}
 Group   3 Type H   : 4s1p contracted to 2s1p pattern {31/1}

Atom   0C    basis set group =>   1
Atom   1C    basis set group =>   1
Atom   2O    basis set group =>   2
Atom   3C    basis set group =>   1
Atom   4H    basis set group =>   3
Atom   5H    basis set group =>   3
Atom   6H    basis set group =>   3
Atom   7H    basis set group =>   3
Atom   8H    basis set group =>   3
Atom   9H    basis set group =>   3
---------------------------------
AUXILIARY/J BASIS SET INFORMATION
---------------------------------
There are 3 groups of distinct atoms

 Group   1 Type C   : 12s5p4d2f1g contracted to 6s4p3d1f1g pattern {711111/2111/211/2/1}
 Group   2 Type O   : 12s5p4d2f1g contracted to 6s4p3d1f1g pattern {711111/2111/211/2/1}
 Group   3 Type H   : 5s2p1d contracted to 3s1p1d pattern {311/2/1}

Atom   0C    basis set group =>   1
Atom   1C    basis set group =>   1
Atom   2O    basis set group =>   2
Atom   3C    basis set group =>   1
Atom   4H    basis set group =>   3
Atom   5H    basis set group =>   3
Atom   6H    basis set group =>   3
Atom   7H    basis set group =>   3
Atom   8H    basis set group =>   3
Atom   9H    basis set group =>   3


           ************************************************************
           *        Program running with 4 parallel MPI-processes     *
           *              working on a common directory               *
           ************************************************************
------------------------------------------------------------------------------
                           ORCA GTO INTEGRAL CALCULATION
                           -- RI-GTO INTEGRALS CHOSEN --
------------------------------------------------------------------------------
------------------------------------------------------------------------------
                   ___                                                        
                  /   \      - P O W E R E D   B Y -                         
                 /     \                                                     
                 |  |  |   _    _      __       _____    __    __             
                 |  |  |  | |  | |    /  \     |  _  \  |  |  /  |          
                  \  \/   | |  | |   /    \    | | | |  |  | /  /          
                 / \  \   | |__| |  /  /\  \   | |_| |  |  |/  /          
                |  |  |   |  __  | /  /__\  \  |    /   |      \           
                |  |  |   | |  | | |   __   |  |    \   |  |\   \          
                \     /   | |  | | |  |  |  |  | |\  \  |  | \   \       
                 \___/    |_|  |_| |__|  |__|  |_| \__\ |__|  \__/        
                                                                              
                      - O R C A' S   B I G   F R I E N D -                    
                                      &                                       
                       - I N T E G R A L  F E E D E R -                       
                                                                              
 v1 FN, 2020, v2 2021                                                         
------------------------------------------------------------------------------


Reading SHARK input file acetone-opt_5.SHARKINP.tmp ... ok
----------------------
SHARK INTEGRAL PACKAGE
----------------------

Number of atoms                             ...     10
Number of basis functions                   ...     86
Number of shells                            ...     42
Maximum angular momentum                    ...      2
Integral batch strategy                     ... SHARK/LIBINT Hybrid
RI-J (if used) integral strategy            ... SPLIT-RIJ (Revised 2003 algorithm where possible)
Printlevel                                  ...      1
Contraction scheme used                     ... SEGMENTED contraction
Coulomb Range Separation                    ... NOT USED
Exchange Range Separation                   ... NOT USED
Finite Nucleus Model                        ... NOT USED
Auxiliary Coulomb fitting basis             ... AVAILABLE
   # of basis functions in Aux-J            ...    262
   # of shells in Aux-J                     ...     90
   Maximum angular momentum in Aux-J        ...      4
Auxiliary J/K fitting basis                 ... NOT available
Auxiliary Correlation fitting basis         ... NOT available
Auxiliary 'external' fitting basis          ... NOT available
Integral threshold                          ...     2.500000e-11
Primitive cut-off                           ...     2.500000e-12
Primitive pair pre-selection threshold      ...     2.500000e-12

Calculating pre-screening integrals         ... done (  0.0 sec) Dimension = 42
Organizing shell pair data                  ... done (  0.0 sec)
Shell pair information
Total number of shell pairs                 ...       903
Shell pairs after pre-screening             ...       898
Total number of primitive shell pairs       ...      3151
Primitive shell pairs kept                  ...      2591
          la=0 lb=0:    297 shell pairs
          la=1 lb=0:    334 shell pairs
          la=1 lb=1:    105 shell pairs
          la=2 lb=0:     96 shell pairs
          la=2 lb=1:     56 shell pairs
          la=2 lb=2:     10 shell pairs

Calculating one electron integrals          ... done (  0.0 sec)
Calculating RI/J V-Matrix + Cholesky decomp.... done (  0.0 sec)
Calculating Nuclear repulsion               ... done (  0.0 sec) ENN=    119.338849102533 Eh

SHARK setup successfully completed in   0.1 seconds

Maximum memory used throughout the entire GTOINT-calculation: 9.6 MB


           ************************************************************
           *        Program running with 4 parallel MPI-processes     *
           *              working on a common directory               *
           ************************************************************
-------------------------------------------------------------------------------
                                 ORCA SCF
-------------------------------------------------------------------------------

------------
SCF SETTINGS
------------
Hamiltonian:
 Density Functional     Method          .... DFT(GTOs)
 Exchange Functional    Exchange        .... B88
   X-Alpha parameter    XAlpha          ....  0.666667
   Becke's b parameter  XBeta           ....  0.004200
 Correlation Functional Correlation     .... LYP
 LDA part of GGA corr.  LDAOpt          .... VWN-5
 Gradients option       PostSCFGGA      .... off
 Hybrid DFT is turned on
   Fraction HF Exchange ScalHFX         ....  0.200000
   Scaling of DF-GGA-X  ScalDFX         ....  0.720000
   Scaling of DF-GGA-C  ScalDFC         ....  0.810000
   Scaling of DF-LDA-C  ScalLDAC        ....  1.000000
   Perturbative correction              ....  0.000000
   Density functional embedding theory  .... OFF
   NL short-range parameter             ....  4.800000
 RI-approximation to the Coulomb term is turned on
   Number of AuxJ basis functions       .... 262
   RIJ-COSX (HFX calculated with COS-X)).... on


General Settings:
 Integral files         IntName         .... acetone-opt_5
 Hartree-Fock type      HFTyp           .... RHF
 Total Charge           Charge          ....    0
 Multiplicity           Mult            ....    1
 Number of Electrons    NEL             ....   32
 Basis Dimension        Dim             ....   86
 Nuclear Repulsion      ENuc            ....    119.3388491025 Eh

Convergence Acceleration:
 DIIS                   CNVDIIS         .... on
   Start iteration      DIISMaxIt       ....    12
   Startup error        DIISStart       ....  0.200000
   # of expansion vecs  DIISMaxEq       ....     5
   Bias factor          DIISBfac        ....   1.050
   Max. coefficient     DIISMaxC        ....  10.000
 Trust-Rad. Augm. Hess. CNVTRAH         .... auto
   Auto Start mean grad. ratio tolernc. ....  1.125000
   Auto Start start iteration           ....    20
   Auto Start num. interpolation iter.  ....    10
   Max. Number of Micro iterations      ....    16
   Max. Number of Macro iterations      .... Maxiter - #DIIS iter
   Number of Davidson start vectors     ....     2
   Converg. threshold I  (grad. norm)   ....   1.000e-05
   Converg. threshold II (energy diff.) ....   1.000e-08
   Grad. Scal. Fac. for Micro threshold ....   0.100
   Minimum threshold for Micro iter.    ....   0.010
   NR start threshold (gradient norm)   ....   0.001
   Initial trust radius                 ....   0.400
   Minimum AH scaling param. (alpha)    ....   1.000
   Maximum AH scaling param. (alpha)    .... 1000.000
   Orbital update algorithm             .... Taylor
   White noise on init. David. guess    .... on
   Maximum white noise                  ....   0.010
   Quad. conv. algorithm                .... NR
 SOSCF                  CNVSOSCF        .... on
   Start iteration      SOSCFMaxIt      ....   150
   Startup grad/error   SOSCFStart      ....  0.003300
 Level Shifting         CNVShift        .... on
   Level shift para.    LevelShift      ....    0.2500
   Turn off err/grad.   ShiftErr        ....    0.0010
 Zerner damping         CNVZerner       .... off
 Static damping         CNVDamp         .... on
   Fraction old density DampFac         ....    0.7000
   Max. Damping (<1)    DampMax         ....    0.9800
   Min. Damping (>=0)   DampMin         ....    0.0000
   Turn off err/grad.   DampErr         ....    0.1000
 Fernandez-Rico         CNVRico         .... off

SCF Procedure:
 Maximum # iterations   MaxIter         ....   125
 SCF integral mode      SCFMode         .... Direct
   Integral package                     .... SHARK and LIBINT hybrid scheme
 Reset frequency        DirectResetFreq ....    20
 Integral Threshold     Thresh          ....  2.500e-11 Eh
 Primitive CutOff       TCut            ....  2.500e-12 Eh

Convergence Tolerance:
 Convergence Check Mode ConvCheckMode   .... Total+1el-Energy
 Convergence forced     ConvForced      .... 0
 Energy Change          TolE            ....  1.000e-08 Eh
 1-El. energy change                    ....  1.000e-05 Eh
 Orbital Gradient       TolG            ....  1.000e-05
 Orbital Rotation angle TolX            ....  1.000e-05
 DIIS Error             TolErr          ....  5.000e-07


Diagonalization of the overlap matrix:
Smallest eigenvalue                        ... 3.249e-03
Time for diagonalization                   ...    0.001 sec
Threshold for overlap eigenvalues          ... 1.000e-08
Number of eigenvalues below threshold      ... 0
Time for construction of square roots      ...    0.002 sec
Total time needed                          ...    0.003 sec

Time for model grid setup =    0.031 sec

------------------------------
INITIAL GUESS: MODEL POTENTIAL
------------------------------
Loading Hartree-Fock densities                     ... done
Calculating cut-offs                               ... done
Initializing the effective Hamiltonian             ... done
Setting up the integral package (SHARK)            ... done
Starting the Coulomb interaction                   ... done (   0.0 sec)
Reading the grid                                   ... done
Mapping shells                                     ... done
Starting the XC term evaluation                    ... done (   0.0 sec)
  promolecular density results
     # of electrons  =     31.995680951
     EX              =    -25.366241704
     EC              =     -1.049429132
     EX+EC           =    -26.415670836
Transforming the Hamiltonian                       ... done (   0.0 sec)
Diagonalizing the Hamiltonian                      ... done (   0.0 sec)
Back transforming the eigenvectors                 ... done (   0.0 sec)
Now organizing SCF variables                       ... done
                      ------------------
                      INITIAL GUESS DONE (   0.1 sec)
                      ------------------
-------------------
DFT GRID GENERATION
-------------------

General Integration Accuracy     IntAcc      ... 4.388
Radial Grid Type                 RadialGrid  ... OptM3 with GC (2021)
Angular Grid (max. ang.)         AngularGrid ... 4 (Lebedev-302)
Angular grid pruning method      GridPruning ... 4 (adaptive)
Weight generation scheme         WeightScheme... Becke
Basis function cutoff            BFCut       ... 1.0000e-11
Integration weight cutoff        WCut        ... 1.0000e-14
Angular grids for H and He will be reduced by one unit
Partially contracted basis set               ... off
Rotationally invariant grid construction     ... off

Total number of grid points                  ...    43767
Total number of batches                      ...      690
Average number of points per batch           ...       63
Average number of grid points per atom       ...     4377
Time for grid setup =    0.168 sec

--------------------
COSX GRID GENERATION
--------------------

GRIDX 1
-------
General Integration Accuracy     IntAcc      ... 3.816
Radial Grid Type                 RadialGrid  ... OptM3 with GC (2021)
Angular Grid (max. ang.)         AngularGrid ... 1 (Lebedev-50)
Angular grid pruning method      GridPruning ... 4 (adaptive)
Weight generation scheme         WeightScheme... Becke
Basis function cutoff            BFCut       ... 1.0000e-11
Integration weight cutoff        WCut        ... 1.0000e-14
Angular grids for H and He will be reduced by one unit
Partially contracted basis set               ... on
Rotationally invariant grid construction     ... off

Total number of grid points                  ...     5636
Total number of batches                      ...       95
Average number of points per batch           ...       59
Average number of grid points per atom       ...      564
UseSFitting                                  ... on

GRIDX 2
-------
General Integration Accuracy     IntAcc      ... 4.020
Radial Grid Type                 RadialGrid  ... OptM3 with GC (2021)
Angular Grid (max. ang.)         AngularGrid ... 2 (Lebedev-110)
Angular grid pruning method      GridPruning ... 4 (adaptive)
Weight generation scheme         WeightScheme... Becke
Basis function cutoff            BFCut       ... 1.0000e-11
Integration weight cutoff        WCut        ... 1.0000e-14
Angular grids for H and He will be reduced by one unit
Partially contracted basis set               ... on
Rotationally invariant grid construction     ... off

Total number of grid points                  ...    12023
Total number of batches                      ...      193
Average number of points per batch           ...       62
Average number of grid points per atom       ...     1202
UseSFitting                                  ... on

GRIDX 3
-------
General Integration Accuracy     IntAcc      ... 4.338
Radial Grid Type                 RadialGrid  ... OptM3 with GC (2021)
Angular Grid (max. ang.)         AngularGrid ... 3 (Lebedev-194)
Angular grid pruning method      GridPruning ... 4 (adaptive)
Weight generation scheme         WeightScheme... Becke
Basis function cutoff            BFCut       ... 1.0000e-11
Integration weight cutoff        WCut        ... 1.0000e-14
Angular grids for H and He will be reduced by one unit
Partially contracted basis set               ... on
Rotationally invariant grid construction     ... off

Total number of grid points                  ...    26453
Total number of batches                      ...      417
Average number of points per batch           ...       63
Average number of grid points per atom       ...     2645
UseSFitting                                  ... on

Time for X-Grid setup             =    0.137 sec

--------------
SCF ITERATIONS
--------------
ITER       Energy         Delta-E        Max-DP      RMS-DP      [F,P]     Damp
               ***  Starting incremental Fock matrix formation  ***
  0   -192.7221410584   0.000000000000 0.10966037  0.00523076  0.2550029 0.7000
  1   -192.8050512207  -0.082910162344 0.07418584  0.00347344  0.0981387 0.7000
                               ***Turning on DIIS***
  2   -192.8348479058  -0.029796685080 0.07900230  0.00454692  0.0416449 0.0000
  3   -192.8825129692  -0.047665063406 0.06918570  0.00274331  0.0491363 0.0000
  4   -192.8931572080  -0.010644238753 0.01137139  0.00065433  0.0163973 0.0000
                      *** Initiating the SOSCF procedure ***
                           *** Shutting down DIIS ***
                      *** Re-Reading the Fockian *** 
                      *** Removing any level shift *** 
ITER      Energy       Delta-E        Grad      Rot      Max-DP    RMS-DP
  5   -192.89423495  -0.0010777452  0.000948  0.000948  0.005345  0.000226
               *** Restarting incremental Fock matrix formation ***
  6   -192.89426172  -0.0000267709  0.000464  0.001187  0.004048  0.000165
  7   -192.89426303  -0.0000013088  0.000434  0.000303  0.000897  0.000030
  8   -192.89426598  -0.0000029478  0.000068  0.000204  0.000426  0.000016
  9   -192.89426594   0.0000000434  0.000124  0.000117  0.000141  0.000006
 10   -192.89426600  -0.0000000663  0.000007  0.000014  0.000073  0.000003
 11   -192.89426600  -0.0000000013  0.000006  0.000006  0.000025  0.000001
                  ***Gradient check signals convergence***
              ***Rediagonalizing the Fockian in SOSCF/NRSCF***

               *****************************************************
               *                     SUCCESS                       *
               *           SCF CONVERGED AFTER  12 CYCLES          *
               *****************************************************

Old exchange energy                            =     -5.169567199 Eh
New exchange energy                            =     -5.169591788 Eh
Exchange energy change after final integration =     -0.000024589 Eh
Total energy after final integration           =   -192.894290594 Eh
Final COS-X integration done in                =     0.358 sec

----------------
TOTAL SCF ENERGY
----------------

Total Energy       :         -192.89429059 Eh           -5248.92050 eV

Components:
Nuclear Repulsion  :          119.33884910 Eh            3247.37518 eV
Electronic Energy  :         -312.23313970 Eh           -8496.29567 eV
One Electron Energy:         -497.03584592 Eh          -13525.03297 eV
Two Electron Energy:          184.80270622 Eh            5028.73729 eV
Max COSX asymmetry :            0.00000182 Eh               0.00005 eV

Virial components:
Potential Energy   :         -383.94590459 Eh          -10447.69921 eV
Kinetic Energy     :          191.05161400 Eh            5198.77872 eV
Virial Ratio       :            2.00964492


DFT components:
N(Alpha)           :       16.000006803844 electrons
N(Beta)            :       16.000006803844 electrons
N(Total)           :       32.000013607689 electrons
E(X)               :      -20.530153002760 Eh       
E(C)               :       -1.247258941912 Eh       
E(XC)              :      -21.777411944672 Eh       
DFET-embed. en.    :        0.000000000000 Eh       

---------------
SCF CONVERGENCE
---------------

  Last Energy change         ...   -1.2341e-10  Tolerance :   1.0000e-08
  Last MAX-Density change    ...    1.5543e-15  Tolerance :   1.0000e-07
  Last RMS-Density change    ...    4.4710e-17  Tolerance :   5.0000e-09
  Last Orbital Gradient      ...    1.2657e-06  Tolerance :   1.0000e-05
  Last Orbital Rotation      ...    8.6185e-07  Tolerance :   1.0000e-05

             **** THE GBW FILE WAS UPDATED (acetone-opt_5.gbw) ****
             **** DENSITY acetone-opt_5.scfp WAS UPDATED ****
             **** ENERGY FILE WAS UPDATED (acetone-opt_5.en.tmp) ****
             **** THE GBW FILE WAS UPDATED (acetone-opt_5.gbw) ****
             **** DENSITY acetone-opt_5.scfp WAS UPDATED ****
----------------
ORBITAL ENERGIES
----------------

  NO   OCC          E(Eh)            E(eV) 
   0   2.0000     -19.115933      -520.1710 
   1   2.0000     -10.270460      -279.4734 
   2   2.0000     -10.189949      -277.2826 
   3   2.0000     -10.189929      -277.2821 
   4   2.0000      -1.014176       -27.5971 
   5   2.0000      -0.764629       -20.8066 
   6   2.0000      -0.704843       -19.1798 
   7   2.0000      -0.524424       -14.2703 
   8   2.0000      -0.464579       -12.6418 
   9   2.0000      -0.455725       -12.4009 
  10   2.0000      -0.445635       -12.1263 
  11   2.0000      -0.409868       -11.1531 
  12   2.0000      -0.388107       -10.5609 
  13   2.0000      -0.376637       -10.2488 
  14   2.0000      -0.344440        -9.3727 
  15   2.0000      -0.244974        -6.6661 
  16   0.0000      -0.015584        -0.4241 
  17   0.0000       0.050488         1.3738 
  18   0.0000       0.107243         2.9182 
  19   0.0000       0.113497         3.0884 
  20   0.0000       0.119043         3.2393 
  21   0.0000       0.147819         4.0224 
  22   0.0000       0.151364         4.1188 
  23   0.0000       0.194654         5.2968 
  24   0.0000       0.271817         7.3965 
  25   0.0000       0.277425         7.5491 
  26   0.0000       0.395288        10.7563 
  27   0.0000       0.440596        11.9892 
  28   0.0000       0.460908        12.5419 
  29   0.0000       0.476035        12.9536 
  30   0.0000       0.497042        13.5252 
  31   0.0000       0.586281        15.9535 
  32   0.0000       0.604486        16.4489 
  33   0.0000       0.621044        16.8995 
  34   0.0000       0.634044        17.2532 
  35   0.0000       0.640640        17.4327 
  36   0.0000       0.648245        17.6397 
  37   0.0000       0.665572        18.1111 
  38   0.0000       0.672718        18.3056 
  39   0.0000       0.683116        18.5885 
  40   0.0000       0.699786        19.0421 
  41   0.0000       0.701734        19.0951 
  42   0.0000       0.817373        22.2419 
  43   0.0000       0.933651        25.4059 
  44   0.0000       1.006838        27.3974 
  45   0.0000       1.013521        27.5793 
  46   0.0000       1.116540        30.3826 
  47   0.0000       1.181623        32.1536 
  48   0.0000       1.291441        35.1419 
  49   0.0000       1.354219        36.8502 
  50   0.0000       1.434016        39.0216 
  51   0.0000       1.513938        41.1963 
  52   0.0000       1.515483        41.2384 
  53   0.0000       1.560015        42.4502 
  54   0.0000       1.580433        43.0058 
  55   0.0000       1.620405        44.0935 
  56   0.0000       1.698618        46.2217 
  57   0.0000       1.709933        46.5296 
  58   0.0000       1.771742        48.2116 
  59   0.0000       1.786955        48.6255 
  60   0.0000       1.792778        48.7840 
  61   0.0000       1.795970        48.8708 
  62   0.0000       1.824208        49.6392 
  63   0.0000       1.930307        52.5263 
  64   0.0000       1.996998        54.3411 
  65   0.0000       2.037039        55.4307 
  66   0.0000       2.066513        56.2327 
  67   0.0000       2.183927        59.4277 
  68   0.0000       2.304054        62.6965 
  69   0.0000       2.340025        63.6753 
  70   0.0000       2.350057        63.9483 
  71   0.0000       2.470370        67.2222 
  72   0.0000       2.477111        67.4056 
  73   0.0000       2.480074        67.4862 
  74   0.0000       2.626797        71.4788 
  75   0.0000       2.677845        72.8679 
  76   0.0000       2.698924        73.4415 
  77   0.0000       2.744358        74.6778 
  78   0.0000       2.856544        77.7305 
  79   0.0000       2.870973        78.1231 
  80   0.0000       2.900578        78.9287 
  81   0.0000       2.944286        80.1181 
  82   0.0000       3.026803        82.3635 
  83   0.0000       3.148804        85.6833 
  84   0.0000       3.367574        91.6363 
  85   0.0000       3.594776        97.8188 

                    ********************************
                    * MULLIKEN POPULATION ANALYSIS *
                    ********************************

-----------------------
MULLIKEN ATOMIC CHARGES
-----------------------
   0 C :    0.045618
   1 C :   -0.050101
   2 O :   -0.217240
   3 C :    0.045539
   4 H :    0.028056
   5 H :    0.030089
   6 H :    0.030012
   7 H :    0.029994
   8 H :    0.028070
   9 H :    0.029962
Sum of atomic charges:    0.0000000

--------------------------------
MULLIKEN REDUCED ORBITAL CHARGES
--------------------------------
  0 C s       :     2.945367  s :     2.945367
      pz      :     1.007642  p :     2.983531
      px      :     0.982153
      py      :     0.993736
      dz2     :     0.002668  d :     0.025483
      dxz     :     0.006845
      dyz     :     0.006243
      dx2y2   :     0.006932
      dxy     :     0.002796
  1 C s       :     3.197268  s :     3.197268
      pz      :     0.911907  p :     2.758948
      px      :     1.045597
      py      :     0.801444
      dz2     :     0.023157  d :     0.093885
      dxz     :     0.037960
      dyz     :     0.018285
      dx2y2   :     0.007324
      dxy     :     0.007159
  2 O s       :     3.762211  s :     3.762211
      pz      :     1.330744  p :     4.437874
      px      :     1.786314
      py      :     1.320816
      dz2     :     0.007321  d :     0.017155
      dxz     :     0.003613
      dyz     :     0.005448
      dx2y2   :     0.000424
      dxy     :     0.000349
  3 C s       :     2.945494  s :     2.945494
      pz      :     1.002956  p :     2.983484
      px      :     0.991824
      py      :     0.988704
      dz2     :     0.002528  d :     0.025483
      dxz     :     0.007263
      dyz     :     0.006131
      dx2y2   :     0.006897
      dxy     :     0.002664
  4 H s       :     0.949010  s :     0.949010
      pz      :     0.008931  p :     0.022933
      px      :     0.008282
      py      :     0.005721
  5 H s       :     0.945439  s :     0.945439
      pz      :     0.010757  p :     0.024472
      px      :     0.004607
      py      :     0.009109
  6 H s       :     0.945514  s :     0.945514
      pz      :     0.006350  p :     0.024474
      px      :     0.005521
      py      :     0.012602
  7 H s       :     0.945533  s :     0.945533
      pz      :     0.006353  p :     0.024473
      px      :     0.004893
      py      :     0.013227
  8 H s       :     0.948994  s :     0.948994
      pz      :     0.007811  p :     0.022935
      px      :     0.010597
      py      :     0.004528
  9 H s       :     0.945567  s :     0.945567
      pz      :     0.010839  p :     0.024471
      px      :     0.005046
      py      :     0.008586


                     *******************************
                     * LOEWDIN POPULATION ANALYSIS *
                     *******************************

----------------------
LOEWDIN ATOMIC CHARGES
----------------------
   0 C :   -0.073761
   1 C :    0.082987
   2 O :   -0.165257
   3 C :   -0.073762
   4 H :    0.036033
   5 H :    0.039436
   6 H :    0.039426
   7 H :    0.039427
   8 H :    0.036043
   9 H :    0.039428

-------------------------------
LOEWDIN REDUCED ORBITAL CHARGES
-------------------------------
  0 C s       :     2.844469  s :     2.844469
      pz      :     1.065715  p :     3.160466
      px      :     1.037779
      py      :     1.056972
      dz2     :     0.006647  d :     0.068826
      dxz     :     0.019320
      dyz     :     0.016269
      dx2y2   :     0.019211
      dxy     :     0.007380
  1 C s       :     2.887742  s :     2.887742
      pz      :     1.004358  p :     2.821035
      px      :     1.034022
      py      :     0.782655
      dz2     :     0.053368  d :     0.208236
      dxz     :     0.090732
      dyz     :     0.035236
      dx2y2   :     0.014876
      dxy     :     0.014025
  2 O s       :     3.562423  s :     3.562423
      pz      :     1.452049  p :     4.573407
      px      :     1.791962
      py      :     1.329396
      dz2     :     0.014385  d :     0.029427
      dxz     :     0.006163
      dyz     :     0.007817
      dx2y2   :     0.000549
      dxy     :     0.000513
  3 C s       :     2.844455  s :     2.844455
      pz      :     1.062190  p :     3.160484
      px      :     1.045085
      py      :     1.053209
      dz2     :     0.006349  d :     0.068824
      dxz     :     0.020463
      dyz     :     0.016187
      dx2y2   :     0.018970
      dxy     :     0.006855
  4 H s       :     0.897918  s :     0.897918
      pz      :     0.024331  p :     0.066049
      px      :     0.026713
      py      :     0.015005
  5 H s       :     0.893198  s :     0.893198
      pz      :     0.029861  p :     0.067365
      px      :     0.013485
      py      :     0.024019
  6 H s       :     0.893210  s :     0.893210
      pz      :     0.016466  p :     0.067364
      px      :     0.015734
      py      :     0.035165
  7 H s       :     0.893211  s :     0.893211
      pz      :     0.016730  p :     0.067362
      px      :     0.013919
      py      :     0.036714
  8 H s       :     0.897908  s :     0.897908
      pz      :     0.021204  p :     0.066049
      px      :     0.033157
      py      :     0.011688
  9 H s       :     0.893210  s :     0.893210
      pz      :     0.030286  p :     0.067362
      px      :     0.013868
      py      :     0.023207


                      *****************************
                      * MAYER POPULATION ANALYSIS *
                      *****************************

  NA   - Mulliken gross atomic population
  ZA   - Total nuclear charge
  QA   - Mulliken gross atomic charge
  VA   - Mayer's total valence
  BVA  - Mayer's bonded valence
  FA   - Mayer's free valence

  ATOM       NA         ZA         QA         VA         BVA        FA
  0 C      5.9544     6.0000     0.0456     3.8279     3.8279    -0.0000
  1 C      6.0501     6.0000    -0.0501     4.3161     4.3161    -0.0000
  2 O      8.2172     8.0000    -0.2172     2.2464     2.2464     0.0000
  3 C      5.9545     6.0000     0.0455     3.8276     3.8276     0.0000
  4 H      0.9719     1.0000     0.0281     1.0200     1.0200     0.0000
  5 H      0.9699     1.0000     0.0301     0.9964     0.9964    -0.0000
  6 H      0.9700     1.0000     0.0300     0.9964     0.9964    -0.0000
  7 H      0.9700     1.0000     0.0300     0.9965     0.9965     0.0000
  8 H      0.9719     1.0000     0.0281     1.0201     1.0201     0.0000
  9 H      0.9700     1.0000     0.0300     0.9965     0.9965    -0.0000

  Mayer bond orders larger than 0.100000
B(  0-C ,  1-C ) :   1.0127 B(  0-C ,  4-H ) :   0.9541 B(  0-C ,  5-H ) :   0.9508 
B(  0-C ,  6-H ) :   0.9508 B(  1-C ,  2-O ) :   2.1600 B(  1-C ,  3-C ) :   1.0123 
B(  3-C ,  7-H ) :   0.9509 B(  3-C ,  8-H ) :   0.9541 B(  3-C ,  9-H ) :   0.9508 


-------
TIMINGS
-------

Total SCF time: 0 days 0 hours 0 min 3 sec 

Total time                  ....       3.646 sec
Sum of individual times     ....       3.552 sec  ( 97.4%)

Fock matrix formation       ....       3.129 sec  ( 85.8%)
  Split-RI-J                ....       0.400 sec  ( 12.8% of F)
  Chain of spheres X        ....       2.094 sec  ( 66.9% of F)
  XC integration            ....       0.595 sec  ( 19.0% of F)
    Basis function eval.    ....       0.137 sec  ( 23.1% of XC)
    Density eval.           ....       0.120 sec  ( 20.2% of XC)
    XC-Functional eval.     ....       0.042 sec  (  7.1% of XC)
    XC-Potential eval.      ....       0.080 sec  ( 13.4% of XC)
Diagonalization             ....       0.013 sec  (  0.4%)
Density matrix formation    ....       0.003 sec  (  0.1%)
Population analysis         ....       0.004 sec  (  0.1%)
Initial guess               ....       0.026 sec  (  0.7%)
Orbital Transformation      ....       0.000 sec  (  0.0%)
Orbital Orthonormalization  ....       0.000 sec  (  0.0%)
DIIS solution               ....       0.019 sec  (  0.5%)
SOSCF solution              ....       0.020 sec  (  0.6%)
Grid generation             ....       0.336 sec  (  9.2%)

Maximum memory used throughout the entire SCF-calculation: 46.4 MB

-------------------------   --------------------
FINAL SINGLE POINT ENERGY      -192.894290593831
-------------------------   --------------------



           ************************************************************
           *        Program running with 4 parallel MPI-processes     *
           *              working on a common directory               *
           ************************************************************
------------------------------------------------------------------------------
                         ORCA SCF GRADIENT CALCULATION
------------------------------------------------------------------------------

 ... reading COSX grid (gridx3)
Gradient of the Kohn-Sham DFT energy:
Kohn-Sham wavefunction type      ... RKS
Hartree-Fock exchange scaling    ...    0.200
Number of operators              ...    1
Number of atoms                  ...   10
Basis set dimensions             ...   86
Integral neglect threshold       ... 2.5e-11
Integral primitive cutoff        ... 2.5e-12
SHARK Integral package           ... ON

Nuc. rep. gradient       (SHARK) ... done (  0.0 sec)
HCore & Overlap gradient (SHARK) ... done (  0.0 sec)
RI-J gradient            (SHARK) ... done (  0.1 sec)
COSX-gradient                    ... done (  0.4 sec)
Exchange-correlation gradient    ... done

------------------
CARTESIAN GRADIENT
------------------

   1   C   :    0.001673818   -0.002485427    0.007418769
   2   C   :   -0.003959171   -0.009002141    0.034689288
   3   O   :    0.002967031    0.006708896   -0.025677070
   4   C   :   -0.003374379   -0.001338428    0.007139626
   5   H   :    0.001911188   -0.001156423    0.002733958
   6   H   :    0.001011312   -0.000947299   -0.007894456
   7   H   :    0.002140909    0.004351473   -0.006387844
   8   H   :    0.000621644    0.004688168   -0.006479495
   9   H   :   -0.002512091   -0.000175286    0.002472349
  10   H   :   -0.000478435   -0.000631479   -0.007957743

Difference to translation invariance:
           :    0.0000018263    0.0000120534    0.0000573816

Difference to rotation invariance:
           :    0.0002384563   -0.0000748270   -0.0002042057

Norm of the cartesian gradient     ...    0.0492254076
RMS gradient                       ...    0.0089872887
MAX gradient                       ...    0.0346892880

-------
TIMINGS
-------

Total SCF gradient time            ...        0.921 sec

One electron gradient       ....       0.013 sec  (  1.4%)
RI-J Coulomb gradient       ....       0.073 sec  (  7.9%)
COSX gradient               ....       0.427 sec  ( 46.4%)
XC gradient                 ....       0.245 sec  ( 26.6%)

Maximum memory used throughout the entire SCFGRAD-calculation: 35.6 MB
------------------------------------------------------------------------------
                         ORCA GEOMETRY RELAXATION STEP
------------------------------------------------------------------------------

Reading the OPT-File                    .... done
Getting information on internals        .... done
Copying old internal coords+grads       .... done
Making the new internal coordinates     .... (new redundants).... done
Validating the new internal coordinates .... (new redundants).... done
Calculating the B-matrix                .... done
Calculating the G,G- and P matrices     .... done
Transforming gradient to internals      .... done
Projecting the internal gradient        .... done
Number of atoms                         ....  10
Number of internal coordinates          ....  36
Current Energy                          ....  -192.894290594 Eh
Current gradient norm                   ....     0.049225408 Eh/bohr
Maximum allowed component of the step   ....  0.300
Current trust radius                    ....  0.300
Evaluating the initial hessian          ....  (Almloef) done
Projecting the Hessian                  .... done
Forming the augmented Hessian           .... done
Diagonalizing the augmented Hessian     .... done
Last element of RFO vector              ....  0.997291236
Lowest eigenvalues of augmented Hessian:
 -0.002026015  0.012442002  0.012442032  0.012442093  0.137607306
Length of the computed step             ....  0.073753777
The final length of the internal step   ....  0.073753777
Converting the step to cartesian space:
 Initial RMS(Int)=    0.0122922961
Transforming coordinates:
 Iter   0:  RMS(Cart)=    0.0144948679 RMS(Int)=    1.4808773870
 Iter   1:  RMS(Cart)=    0.0000986631 RMS(Int)=    0.0000862109
 Iter   2:  RMS(Cart)=    0.0000009638 RMS(Int)=    0.0000009323
 Iter   3:  RMS(Cart)=    0.0000000119 RMS(Int)=    0.0000000127
done
Storing new coordinates                 .... done

                                .--------------------.
          ----------------------|Geometry convergence|-------------------------
          Item                value                   Tolerance       Converged
          ---------------------------------------------------------------------
          RMS gradient        0.0056254154            0.0001000000      NO
          MAX gradient        0.0267095547            0.0003000000      NO
          RMS step            0.0122922961            0.0020000000      NO
          MAX step            0.0264696870            0.0040000000      NO
          ........................................................
          Max(Bonds)      0.0140      Max(Angles)    1.41
          Max(Dihed)        0.67      Max(Improp)    0.00
          ---------------------------------------------------------------------

The optimization has not yet converged - more geometry cycles are needed


    ---------------------------------------------------------------------------
                         Redundant Internal Coordinates
                            (Angstroem and degrees)

        Definition                    Value    dE/dq     Step     New-Value
    ----------------------------------------------------------------------------
     1. B(C   1,C   0)                1.5048 -0.007889  0.0101    1.5149   
     2. B(O   2,C   1)                1.2301  0.026710 -0.0140    1.2161   
     3. B(C   3,C   1)                1.5048 -0.007914  0.0102    1.5149   
     4. B(H   4,C   0)                1.0935 -0.003458  0.0051    1.0986   
     5. B(H   5,C   0)                1.0928 -0.006602  0.0097    1.1025   
     6. B(H   6,C   0)                1.0928 -0.006602  0.0097    1.1025   
     7. B(H   7,C   3)                1.0928 -0.006609  0.0098    1.1025   
     8. B(H   8,C   3)                1.0935 -0.003457  0.0051    1.0986   
     9. B(H   9,C   3)                1.0928 -0.006593  0.0097    1.1025   
    10. A(H   5,C   0,H   6)          110.21  0.005156   -1.41    108.80   
    11. A(H   4,C   0,H   6)          108.87 -0.000357    0.30    109.17   
    12. A(C   1,C   0,H   4)          109.71  0.001082    0.02    109.73   
    13. A(C   1,C   0,H   5)          109.58 -0.002735    0.40    109.98   
    14. A(C   1,C   0,H   6)          109.58 -0.002734    0.39    109.98   
    15. A(H   4,C   0,H   5)          108.87 -0.000372    0.30    109.17   
    16. A(O   2,C   1,C   3)          121.64  0.000047   -0.01    121.63   
    17. A(C   0,C   1,C   3)          116.73 -0.000122    0.02    116.74   
    18. A(C   0,C   1,O   2)          121.64  0.000075   -0.01    121.63   
    19. A(H   7,C   3,H   9)          110.21  0.005148   -1.41    108.80   
    20. A(C   1,C   3,H   9)          109.58 -0.002709    0.39    109.97   
    21. A(H   7,C   3,H   8)          108.87 -0.000353    0.30    109.17   
    22. A(C   1,C   3,H   8)          109.71  0.001050    0.02    109.73   
    23. A(H   8,C   3,H   9)          108.87 -0.000361    0.30    109.17   
    24. A(C   1,C   3,H   7)          109.58 -0.002734    0.40    109.98   
    25. D(C   3,C   1,C   0,H   5)     60.52  0.001475   -0.67     59.86   
    26. D(C   3,C   1,C   0,H   4)   -180.00  0.000005   -0.04   -180.04   
    27. D(O   2,C   1,C   0,H   4)     -0.00  0.000001   -0.03     -0.03   
    28. D(C   3,C   1,C   0,H   6)    -60.52 -0.001446    0.58    -59.95   
    29. D(O   2,C   1,C   0,H   6)    119.48 -0.001450    0.59    120.07   
    30. D(O   2,C   1,C   0,H   5)   -119.48  0.001471   -0.65   -120.13   
    31. D(H   7,C   3,C   1,C   0)     60.52  0.001458   -0.60     59.92   
    32. D(H   9,C   3,C   1,O   2)    119.48 -0.001464    0.63    120.11   
    33. D(H   9,C   3,C   1,C   0)    -60.52 -0.001468    0.65    -59.88   
    34. D(H   8,C   3,C   1,O   2)      0.00 -0.000004    0.01      0.01   
    35. D(H   8,C   3,C   1,C   0)    180.00 -0.000008    0.02    180.02   
    36. D(H   7,C   3,C   1,O   2)   -119.48  0.001462   -0.61   -120.09   
    ----------------------------------------------------------------------------

         *************************************************************
         *                GEOMETRY OPTIMIZATION CYCLE   2            *
         *************************************************************
---------------------------------
CARTESIAN COORDINATES (ANGSTROEM)
---------------------------------
  C     -1.273808    0.245055    0.085774
  C      0.069703    0.157899   -0.608711
  O      0.203700    0.461669   -1.778565
  C      1.238184   -0.325820    0.225367
  H     -2.033556    0.606873   -0.620542
  H     -1.212356    0.940473    0.939078
  H     -1.570390   -0.749260    0.458447
  H      1.036076   -1.341493    0.603640
  H      2.149416   -0.344064   -0.388093
  H      1.393033    0.348666    1.083605

----------------------------
CARTESIAN COORDINATES (A.U.)
----------------------------
  NO LB      ZA    FRAG     MASS         X           Y           Z
   0 C     6.0000    0    12.011   -2.407149    0.463087    0.162089
   1 C     6.0000    0    12.011    0.131719    0.298386   -1.150297
   2 O     8.0000    0    15.999    0.384937    0.872428   -3.361002
   3 C     6.0000    0    12.011    2.339829   -0.615710    0.425882
   4 H     1.0000    0     1.008   -3.842864    1.146824   -1.172655
   5 H     1.0000    0     1.008   -2.291021    1.777237    1.774601
   6 H     1.0000    0     1.008   -2.967607   -1.415897    0.866339
   7 H     1.0000    0     1.008    1.957899   -2.535055    1.140714
   8 H     1.0000    0     1.008    4.061807   -0.650186   -0.733389
   9 H     1.0000    0     1.008    2.632450    0.658884    2.047717

--------------------------------
INTERNAL COORDINATES (ANGSTROEM)
--------------------------------
 C      0   0   0     0.000000000000     0.00000000     0.00000000
 C      1   0   0     1.514901295662     0.00000000     0.00000000
 O      2   1   0     1.216055697177   121.62586749     0.00000000
 C      2   1   3     1.514931866340   116.74467185   179.98555884
 H      1   2   3     1.098640585833   109.72561667   359.97342825
 H      1   2   3     1.102502727646   109.97878357   239.86983655
 H      1   2   3     1.102501287518   109.97741305   120.06898564
 H      4   2   1     1.102511385177   109.97800463    59.92299885
 H      4   2   1     1.098639478871   109.73146918   180.02448595
 H      4   2   1     1.102489193781   109.97345583   300.12388649

---------------------------
INTERNAL COORDINATES (A.U.)
---------------------------
 C      0   0   0     0.000000000000     0.00000000     0.00000000
 C      1   0   0     2.862748568724     0.00000000     0.00000000
 O      2   1   0     2.298012231259   121.62586749     0.00000000
 C      2   1   3     2.862806338933   116.74467185   179.98555884
 H      1   2   3     2.076129826835   109.72561667   359.97342825
 H      1   2   3     2.083428217152   109.97878357   239.86983655
 H      1   2   3     2.083425495705   109.97741305   120.06898564
 H      4   2   1     2.083444577514   109.97800463    59.92299885
 H      4   2   1     2.076127734979   109.73146918   180.02448595
 H      4   2   1     2.083402641854   109.97345583   300.12388649



           ************************************************************
           *        Program running with 4 parallel MPI-processes     *
           *              working on a common directory               *
           ************************************************************
------------------------------------------------------------------------------
                   ___                                                        
                  /   \      - P O W E R E D   B Y -                         
                 /     \                                                     
                 |  |  |   _    _      __       _____    __    __             
                 |  |  |  | |  | |    /  \     |  _  \  |  |  /  |          
                  \  \/   | |  | |   /    \    | | | |  |  | /  /          
                 / \  \   | |__| |  /  /\  \   | |_| |  |  |/  /          
                |  |  |   |  __  | /  /__\  \  |    /   |      \           
                |  |  |   | |  | | |   __   |  |    \   |  |\   \          
                \     /   | |  | | |  |  |  |  | |\  \  |  | \   \       
                 \___/    |_|  |_| |__|  |__|  |_| \__\ |__|  \__/        
                                                                              
                      - O R C A' S   B I G   F R I E N D -                    
                                      &                                       
                       - I N T E G R A L  F E E D E R -                       
                                                                              
 v1 FN, 2020, v2 2021                                                         
------------------------------------------------------------------------------


Reading SHARK input file acetone-opt_5.SHARKINP.tmp ... ok
----------------------
SHARK INTEGRAL PACKAGE
----------------------

Number of atoms                             ...     10
Number of basis functions                   ...     86
Number of shells                            ...     42
Maximum angular momentum                    ...      2
Integral batch strategy                     ... SHARK/LIBINT Hybrid
RI-J (if used) integral strategy            ... SPLIT-RIJ (Revised 2003 algorithm where possible)
Printlevel                                  ...      1
Contraction scheme used                     ... SEGMENTED contraction
Coulomb Range Separation                    ... NOT USED
Exchange Range Separation                   ... NOT USED
Finite Nucleus Model                        ... NOT USED
Auxiliary Coulomb fitting basis             ... AVAILABLE
   # of basis functions in Aux-J            ...    262
   # of shells in Aux-J                     ...     90
   Maximum angular momentum in Aux-J        ...      4
Auxiliary J/K fitting basis                 ... NOT available
Auxiliary Correlation fitting basis         ... NOT available
Auxiliary 'external' fitting basis          ... NOT available
Integral threshold                          ...     2.500000e-11
Primitive cut-off                           ...     2.500000e-12
Primitive pair pre-selection threshold      ...     2.500000e-12

Calculating pre-screening integrals         ... done (  0.0 sec) Dimension = 42
Organizing shell pair data                  ... done (  0.0 sec)
Shell pair information
Total number of shell pairs                 ...       903
Shell pairs after pre-screening             ...       898
Total number of primitive shell pairs       ...      3151
Primitive shell pairs kept                  ...      2591
          la=0 lb=0:    297 shell pairs
          la=1 lb=0:    334 shell pairs
          la=1 lb=1:    105 shell pairs
          la=2 lb=0:     96 shell pairs
          la=2 lb=1:     56 shell pairs
          la=2 lb=2:     10 shell pairs

Calculating one electron integrals          ... done (  0.0 sec)
Calculating RI/J V-Matrix + Cholesky decomp.... done (  0.0 sec)
Calculating Nuclear repulsion               ... done (  0.0 sec) ENN=    119.082924517328 Eh

SHARK setup successfully completed in   0.1 seconds

Maximum memory used throughout the entire GTOINT-calculation: 9.6 MB


           ************************************************************
           *        Program running with 4 parallel MPI-processes     *
           *              working on a common directory               *
           ************************************************************

Diagonalization of the overlap matrix:
Smallest eigenvalue                        ... 3.402e-03
Time for diagonalization                   ...    0.001 sec
Threshold for overlap eigenvalues          ... 1.000e-08
Number of eigenvalues below threshold      ... 0
Time for construction of square roots      ...    0.001 sec
Total time needed                          ...    0.003 sec

-------------------
DFT GRID GENERATION
-------------------

General Integration Accuracy     IntAcc      ... 4.388
Radial Grid Type                 RadialGrid  ... OptM3 with GC (2021)
Angular Grid (max. ang.)         AngularGrid ... 4 (Lebedev-302)
Angular grid pruning method      GridPruning ... 4 (adaptive)
Weight generation scheme         WeightScheme... Becke
Basis function cutoff            BFCut       ... 1.0000e-11
Integration weight cutoff        WCut        ... 1.0000e-14
Angular grids for H and He will be reduced by one unit
Partially contracted basis set               ... off
Rotationally invariant grid construction     ... off

Total number of grid points                  ...    43771
Total number of batches                      ...      689
Average number of points per batch           ...       63
Average number of grid points per atom       ...     4377
Time for grid setup =    0.164 sec

--------------------
COSX GRID GENERATION
--------------------

GRIDX 1
-------
General Integration Accuracy     IntAcc      ... 3.816
Radial Grid Type                 RadialGrid  ... OptM3 with GC (2021)
Angular Grid (max. ang.)         AngularGrid ... 1 (Lebedev-50)
Angular grid pruning method      GridPruning ... 4 (adaptive)
Weight generation scheme         WeightScheme... Becke
Basis function cutoff            BFCut       ... 1.0000e-11
Integration weight cutoff        WCut        ... 1.0000e-14
Angular grids for H and He will be reduced by one unit
Partially contracted basis set               ... on
Rotationally invariant grid construction     ... off

Total number of grid points                  ...     5642
Total number of batches                      ...       95
Average number of points per batch           ...       59
Average number of grid points per atom       ...      564
UseSFitting                                  ... on

GRIDX 2
-------
General Integration Accuracy     IntAcc      ... 4.020
Radial Grid Type                 RadialGrid  ... OptM3 with GC (2021)
Angular Grid (max. ang.)         AngularGrid ... 2 (Lebedev-110)
Angular grid pruning method      GridPruning ... 4 (adaptive)
Weight generation scheme         WeightScheme... Becke
Basis function cutoff            BFCut       ... 1.0000e-11
Integration weight cutoff        WCut        ... 1.0000e-14
Angular grids for H and He will be reduced by one unit
Partially contracted basis set               ... on
Rotationally invariant grid construction     ... off

Total number of grid points                  ...    12029
Total number of batches                      ...      193
Average number of points per batch           ...       62
Average number of grid points per atom       ...     1203
UseSFitting                                  ... on

GRIDX 3
-------
General Integration Accuracy     IntAcc      ... 4.338
Radial Grid Type                 RadialGrid  ... OptM3 with GC (2021)
Angular Grid (max. ang.)         AngularGrid ... 3 (Lebedev-194)
Angular grid pruning method      GridPruning ... 4 (adaptive)
Weight generation scheme         WeightScheme... Becke
Basis function cutoff            BFCut       ... 1.0000e-11
Integration weight cutoff        WCut        ... 1.0000e-14
Angular grids for H and He will be reduced by one unit
Partially contracted basis set               ... on
Rotationally invariant grid construction     ... off

Total number of grid points                  ...    26459
Total number of batches                      ...      418
Average number of points per batch           ...       63
Average number of grid points per atom       ...     2646
UseSFitting                                  ... on

Time for X-Grid setup             =    0.134 sec

--------------
SCF ITERATIONS
--------------
ITER       Energy         Delta-E        Max-DP      RMS-DP      [F,P]     Damp
               ***  Starting incremental Fock matrix formation  ***
                      *** Initiating the SOSCF procedure ***
                      *** Re-Reading the Fockian *** 
                      *** Removing any level shift *** 
ITER      Energy       Delta-E        Grad      Rot      Max-DP    RMS-DP
  0   -192.89528352 -192.8952835160  0.003228  0.003228  0.008455  0.000483
               *** Restarting incremental Fock matrix formation ***
  1   -192.89552759  -0.0002440734  0.002177  0.006345  0.007884  0.000374
  2   -192.89544233   0.0000852599  0.005130  0.004983  0.006110  0.000255
  3   -192.89557541  -0.0001330783  0.000387  0.000641  0.002005  0.000054
  4   -192.89557458   0.0000008244  0.000405  0.000332  0.001026  0.000031
  5   -192.89557751  -0.0000029296  0.000011  0.000011  0.000024  0.000001
  6   -192.89557751  -0.0000000007  0.000008  0.000005  0.000011  0.000001
                  ***Gradient check signals convergence***
              ***Rediagonalizing the Fockian in SOSCF/NRSCF***

               *****************************************************
               *                     SUCCESS                       *
               *           SCF CONVERGED AFTER   7 CYCLES          *
               *****************************************************

Old exchange energy                            =     -5.166653931 Eh
New exchange energy                            =     -5.166678741 Eh
Exchange energy change after final integration =     -0.000024810 Eh
Total energy after final integration           =   -192.895602325 Eh
Final COS-X integration done in                =     0.380 sec
Total Energy       :         -192.89560232 Eh           -5248.95619 eV
  Last Energy change         ...   -8.2483e-10  Tolerance :   1.0000e-08
  Last MAX-Density change    ...    1.7764e-15  Tolerance :   1.0000e-07
             **** THE GBW FILE WAS UPDATED (acetone-opt_5.gbw) ****
             **** DENSITY acetone-opt_5.scfp WAS UPDATED ****
             **** ENERGY FILE WAS UPDATED (acetone-opt_5.en.tmp) ****
             **** THE GBW FILE WAS UPDATED (acetone-opt_5.gbw) ****
             **** DENSITY acetone-opt_5.scfp WAS UPDATED ****
Total SCF time: 0 days 0 hours 0 min 2 sec 

Maximum memory used throughout the entire SCF-calculation: 46.4 MB

-------------------------   --------------------
FINAL SINGLE POINT ENERGY      -192.895602324628
-------------------------   --------------------



           ************************************************************
           *        Program running with 4 parallel MPI-processes     *
           *              working on a common directory               *
           ************************************************************
------------------------------------------------------------------------------
                         ORCA SCF GRADIENT CALCULATION
------------------------------------------------------------------------------

 ... reading COSX grid (gridx3)
Gradient of the Kohn-Sham DFT energy:
Kohn-Sham wavefunction type      ... RKS
Hartree-Fock exchange scaling    ...    0.200
Number of operators              ...    1
Number of atoms                  ...   10
Basis set dimensions             ...   86
Integral neglect threshold       ... 2.5e-11
Integral primitive cutoff        ... 2.5e-12
SHARK Integral package           ... ON

Nuc. rep. gradient       (SHARK) ... done (  0.0 sec)
HCore & Overlap gradient (SHARK) ... done (  0.0 sec)
RI-J gradient            (SHARK) ... done (  0.1 sec)
COSX-gradient                    ... done (  0.4 sec)
Exchange-correlation gradient    ... done

------------------
CARTESIAN GRADIENT
------------------

   1   C   :    0.001443224   -0.000905177    0.002046625
   2   C   :   -0.001336448   -0.003039529    0.011642574
   3   O   :    0.000835751    0.001896250   -0.007091565
   4   C   :   -0.001907926   -0.000136234    0.001872009
   5   H   :   -0.000441956    0.000025917    0.000315182
   6   H   :    0.000770660    0.001784805   -0.001901022
   7   H   :    0.000250543   -0.000702101   -0.002611991
   8   H   :   -0.000261269   -0.000603022   -0.002642717
   9   H   :    0.000366407   -0.000179480    0.000353156
  10   H   :    0.000283216    0.001868424   -0.001915141

Difference to translation invariance:
           :    0.0000022013    0.0000098525    0.0000671096

Difference to rotation invariance:
           :    0.0002546718   -0.0001057387   -0.0001986735

Norm of the cartesian gradient     ...    0.0156660740
RMS gradient                       ...    0.0028602207
MAX gradient                       ...    0.0116425742

-------
TIMINGS
-------

Total SCF gradient time            ...        0.917 sec

One electron gradient       ....       0.012 sec  (  1.3%)
RI-J Coulomb gradient       ....       0.069 sec  (  7.5%)
COSX gradient               ....       0.446 sec  ( 48.7%)
XC gradient                 ....       0.273 sec  ( 29.7%)

Maximum memory used throughout the entire SCFGRAD-calculation: 35.6 MB
------------------------------------------------------------------------------
                         ORCA GEOMETRY RELAXATION STEP
------------------------------------------------------------------------------

Reading the OPT-File                    .... done
Getting information on internals        .... done
Copying old internal coords+grads       .... done
Making the new internal coordinates     .... (new redundants).... done
Validating the new internal coordinates .... (new redundants).... done
Calculating the B-matrix                .... done
Calculating the G,G- and P matrices     .... done
Transforming gradient to internals      .... done
Projecting the internal gradient        .... done
Number of atoms                         ....  10
Number of internal coordinates          ....  36
Current Energy                          ....  -192.895602325 Eh
Current gradient norm                   ....     0.015666074 Eh/bohr
Maximum allowed component of the step   ....  0.300
Current trust radius                    ....  0.300
Updating the Hessian (BFGS)             .... done
Forming the augmented Hessian           .... done
Diagonalizing the augmented Hessian     .... done
Last element of RFO vector              ....  0.998679894
Lowest eigenvalues of augmented Hessian:
 -0.000425838  0.012441482  0.012442066  0.012442116  0.114794528
Length of the computed step             ....  0.051433937
The final length of the internal step   ....  0.051433937
Converting the step to cartesian space:
 Initial RMS(Int)=    0.0085723229
Transforming coordinates:
 Iter   0:  RMS(Cart)=    0.0086371884 RMS(Int)=    0.0085694870
 Iter   1:  RMS(Cart)=    0.0000511569 RMS(Int)=    0.0000478620
 Iter   2:  RMS(Cart)=    0.0000004911 RMS(Int)=    0.0000005442
 Iter   3:  RMS(Cart)=    0.0000000068 RMS(Int)=    0.0000000063
done
Storing new coordinates                 .... done

                                .--------------------.
          ----------------------|Geometry convergence|-------------------------
          Item                value                   Tolerance       Converged
          ---------------------------------------------------------------------
          Energy change      -0.0013117308            0.0000050000      NO
          RMS gradient        0.0017410206            0.0001000000      NO
          MAX gradient        0.0073940957            0.0003000000      NO
          RMS step            0.0085723229            0.0020000000      NO
          MAX step            0.0229938356            0.0040000000      NO
          ........................................................
          Max(Bonds)      0.0067      Max(Angles)    1.32
          Max(Dihed)        0.66      Max(Improp)    0.00
          ---------------------------------------------------------------------

The optimization has not yet converged - more geometry cycles are needed


    ---------------------------------------------------------------------------
                         Redundant Internal Coordinates
                            (Angstroem and degrees)

        Definition                    Value    dE/dq     Step     New-Value
    ----------------------------------------------------------------------------
     1. B(C   1,C   0)                1.5149 -0.002776  0.0059    1.5208   
     2. B(O   2,C   1)                1.2161  0.007394 -0.0067    1.2094   
     3. B(C   3,C   1)                1.5149 -0.002778  0.0059    1.5209   
     4. B(H   4,C   0)                1.0986  0.000114  0.0002    1.0988   
     5. B(H   5,C   0)                1.1025 -0.000310  0.0015    1.1040   
     6. B(H   6,C   0)                1.1025 -0.000314  0.0015    1.1040   
     7. B(H   7,C   3)                1.1025 -0.000313  0.0015    1.1040   
     8. B(H   8,C   3)                1.0986  0.000115  0.0002    1.0988   
     9. B(H   9,C   3)                1.1025 -0.000309  0.0015    1.1040   
    10. A(H   5,C   0,H   6)          108.80  0.003053   -1.32    107.48   
    11. A(H   4,C   0,H   6)          109.17 -0.000299    0.30    109.47   
    12. A(C   1,C   0,H   4)          109.73  0.000792   -0.02    109.70   
    13. A(C   1,C   0,H   5)          109.98 -0.001605    0.36    110.34   
    14. A(C   1,C   0,H   6)          109.98 -0.001600    0.36    110.34   
    15. A(H   4,C   0,H   5)          109.17 -0.000311    0.31    109.48   
    16. A(O   2,C   1,C   3)          121.63 -0.000588    0.12    121.75   
[...]
     18       0.000000   0.000000   0.000000   0.000000   0.000000   0.000000
     19       0.000000   0.000000   0.000000   0.000000   0.000000   0.000000
     20       0.000000   0.000000   0.000000   0.000000   0.000000   0.000000
     21       0.000000   0.000000   0.000000   0.000000   0.000000   0.000000
     22       0.000000   0.000000   0.000000   0.000000   0.000000   0.000000
     23       0.000000   0.000000   0.000000   0.000000   0.000000   0.000000
     24       0.000000   0.000000   0.000000   0.000000   0.000000   0.000000
     25       0.000000   0.000000   0.000000   0.000000   0.000000   0.000000
     26       0.000000   0.000000   0.000000   0.000000   0.000000   0.000000
     27       0.000000   0.000000   0.000000   0.000000   0.000000   0.000000
     28       0.000000   0.000000   0.000000   0.000000   0.000000   0.000000
     29       0.000000   0.000000   0.000000   0.000000   0.000000   0.000000
                  6          7          8          9         10         11    
      0       0.003930   0.007466   0.138713  -0.004111   0.135457   0.263230
      1       0.018721   0.036314  -0.057805  -0.016967   0.011986  -0.025250
      2       0.005218   0.010158   0.101335  -0.004999  -0.143838  -0.107127
      3      -0.000098   0.004555   0.014148   0.053033   0.129210  -0.015149
      4      -0.000053   0.021413   0.032389   0.251636  -0.029004  -0.034234
      5      -0.000058   0.006260  -0.122185   0.071459   0.007294   0.132440
      6       0.000176  -0.015178   0.013923  -0.018814  -0.295758  -0.018036
      7       0.000391  -0.071614   0.031259  -0.090073   0.067060  -0.040661
      8       0.000088  -0.020064  -0.123407  -0.025139  -0.016437   0.157751
      9      -0.004129   0.007866  -0.159859  -0.003260   0.101203  -0.235565
     10      -0.019135   0.035971   0.010005  -0.017067  -0.065773   0.087776
     11      -0.005328   0.010070   0.084750  -0.005136   0.156931  -0.134775
     12      -0.069673   0.080887  -0.110315  -0.064677   0.390469   0.445953
     13      -0.324406   0.377138  -0.078085  -0.295277   0.031220  -0.013886
     14      -0.092912   0.107275   0.362277  -0.083649  -0.407873  -0.286910
     15      -0.053197   0.075004   0.344196  -0.404442  -0.066421   0.197667
     16       0.356008  -0.298089  -0.120274  -0.098257   0.076759   0.004739
     17      -0.252274   0.263267   0.135084   0.082604  -0.181306  -0.131805
     18       0.156995  -0.155237   0.346507   0.344469  -0.067000   0.196360
     19       0.126597  -0.067472  -0.105413  -0.187777   0.056156  -0.012498
     20       0.390779  -0.369198   0.137227  -0.164293  -0.187853  -0.138329
     21       0.124813   0.149812  -0.371166  -0.371432  -0.105802  -0.165364
     22      -0.190596  -0.140027   0.057872  -0.025057  -0.017024   0.069684
     23      -0.370516  -0.356757   0.097392  -0.204056   0.177415  -0.157469
     24       0.067045   0.080115   0.027053  -0.062092   0.293343  -0.375536
     25       0.320534   0.381894  -0.109683  -0.295923  -0.187811   0.173391
     26       0.090846   0.107647   0.370073  -0.084703   0.445608  -0.332688
     27      -0.225233  -0.226639  -0.373874   0.312688  -0.109902  -0.161950
     28      -0.288775  -0.233270   0.043076  -0.260948  -0.037161   0.086811
     29       0.234678   0.250588   0.095259   0.122375   0.171979  -0.152303
                 12         13         14         15         16         17    
      0      -0.019657   0.038598  -0.049095   0.025716   0.070822   0.089224
      1      -0.090976   0.025699   0.043235   0.121907  -0.029459  -0.003642
      2      -0.023624  -0.127021  -0.116134   0.034498   0.051214  -0.053820
      3       0.001625  -0.101793  -0.004665  -0.046946  -0.319267  -0.000965
      4      -0.000402   0.023018  -0.010433  -0.222360   0.072465  -0.000821
      5       0.000137  -0.005721   0.040332  -0.062893  -0.017723   0.004150
      6       0.000379  -0.025389  -0.011407   0.008873   0.052906  -0.000382
      7      -0.000094   0.005795  -0.025854   0.041853  -0.012006  -0.001029
      8       0.000083  -0.001479   0.099925   0.011807   0.002942   0.003895
      9       0.018847   0.010195   0.074850   0.025773   0.081565  -0.074914
     10       0.091196  -0.036702   0.015067   0.121940  -0.005116   0.033472
     11       0.023479   0.129873  -0.109192   0.034407  -0.042699  -0.062487
     12       0.053160  -0.296071  -0.421510  -0.059528   0.451520  -0.218487
     13       0.217688   0.003460   0.011698  -0.270224  -0.000279  -0.029054
     14       0.057358   0.230816   0.279095  -0.076382  -0.341234   0.261402
     15       0.416596   0.400501   0.303660  -0.360442   0.129942  -0.387407
     16       0.081841  -0.114573  -0.137707  -0.092424   0.162068  -0.158185
     17      -0.180368  -0.042088   0.002718   0.217638  -0.120406   0.112775
     18      -0.386577   0.397539   0.327952   0.321775   0.072014  -0.309149
     19       0.131129  -0.036327  -0.009708  -0.097275  -0.113729   0.212163
     20       0.240767  -0.010583   0.041065  -0.270643  -0.201042   0.218679
     21      -0.376974   0.371909  -0.302836  -0.301340   0.092414   0.342771
     22       0.042007  -0.138891   0.134001   0.043600   0.076611   0.063158
     23      -0.283201   0.053855   0.005123  -0.305704   0.208786   0.252668
     24      -0.041528  -0.242420   0.353163  -0.056167   0.368658   0.155038
     25      -0.220307   0.119296  -0.164754  -0.271168  -0.186539  -0.113125
     26      -0.057258  -0.260789   0.322132  -0.076274   0.386800   0.280381
     27       0.319606   0.403050  -0.330670   0.260726   0.034215   0.264271
     28      -0.248689  -0.068102   0.006445  -0.232827  -0.199045  -0.304293
     29       0.221476   0.086446  -0.031822   0.252327   0.130130   0.148700
                 18         19         20         21         22         23    
      0      -0.127484  -0.022724  -0.032943  -0.007856   0.006505  -0.010437
      1       0.013251   0.012178   0.011798  -0.042152   0.031641  -0.009463
      2       0.048193  -0.025133  -0.021127  -0.011580   0.009092   0.041450
      3       0.115799  -0.020350  -0.001387  -0.000403   0.006523   0.081049
      4      -0.026329   0.004679  -0.003052   0.000257   0.030360   0.183594
      5       0.006421  -0.001078   0.012015  -0.000308   0.008635  -0.709651
      6      -0.014667   0.006186   0.003287  -0.000018  -0.000434  -0.053050
      7       0.003326  -0.001399   0.007435  -0.000208  -0.001993  -0.120102
      8      -0.000794   0.000258  -0.028855   0.000710  -0.000617   0.464072
      9      -0.115690  -0.028040   0.037460   0.008104   0.006784   0.000971
     10       0.042114  -0.000558  -0.002011   0.041955   0.031407  -0.012073
     11      -0.062332   0.022284  -0.016778   0.012526   0.008953   0.042132
     12       0.166529   0.198114   0.207872   0.100156  -0.101099   0.167913
     13       0.038676   0.026764   0.043670   0.489615  -0.476018   0.014462
     14      -0.251300  -0.245275  -0.252726   0.146780  -0.137485  -0.176508
     15       0.414649   0.013079   0.036607  -0.281595   0.306562  -0.100504
     16       0.104616  -0.357812  -0.344305   0.146542  -0.133389  -0.081279
     17      -0.069699   0.269493   0.261068  -0.127433   0.106365   0.092708
     18       0.350645   0.116854   0.152357   0.292135  -0.318869  -0.070481
     19      -0.203170   0.134749   0.115984  -0.063046   0.067369   0.053764
     20      -0.156666   0.410041   0.402152   0.135063  -0.123866   0.131040
     21       0.389094   0.088733  -0.113433   0.310519   0.326564   0.072889
     22       0.036664  -0.182033   0.178025  -0.082267  -0.079849   0.021409
     23       0.200051  -0.396440   0.382551  -0.121844  -0.087494   0.139013
     24       0.107788   0.139273  -0.146606  -0.099619  -0.100205  -0.125628
     25      -0.100951  -0.102365   0.097756  -0.495861  -0.474372   0.080870
     26       0.269636   0.262622  -0.280594  -0.132730  -0.135715  -0.192838
     27       0.321861   0.193141  -0.226266  -0.319458  -0.342143   0.044877
     28      -0.274612   0.308696  -0.289384   0.007599   0.014879  -0.114005
     29       0.112553  -0.257736   0.254040   0.081297   0.070074   0.100869
                 24         25         26         27         28         29    
      0      -0.025513   0.025659  -0.013196   0.012847  -0.038181  -0.027997
      1      -0.002167   0.001945  -0.061996   0.060502   0.025315   0.018513
      2       0.026443  -0.025774  -0.017719   0.017244  -0.060312  -0.044158
      3       0.002420  -0.000011  -0.000017   0.000129  -0.000223   0.000395
      4      -0.000548  -0.000045  -0.000003   0.000589   0.000191   0.000798
      5       0.000133   0.000187  -0.000000   0.000152  -0.000501  -0.003113
      6      -0.000188  -0.000081  -0.000000   0.000065   0.000257  -0.000195
      7       0.000043  -0.000183  -0.000003   0.000306  -0.000118  -0.000338
      8      -0.000013   0.000715  -0.000001   0.000090   0.000224   0.001334
      9      -0.018949  -0.019681   0.012712   0.013084  -0.037635   0.051531
     10       0.012152   0.012309   0.060480   0.062117  -0.003581   0.004831
     11      -0.028574  -0.028586   0.017178   0.017614   0.040486  -0.055403
     12       0.202763  -0.207472  -0.003222   0.003146   0.506856   0.368341
     13      -0.099738   0.101215  -0.010522   0.008484  -0.243147  -0.176665
     14       0.196508  -0.198138  -0.003929   0.003687   0.469925   0.341406
     15      -0.030811   0.031466   0.028264  -0.027740   0.011552   0.008113
     16      -0.284677   0.279431   0.304390  -0.296521   0.150466   0.113716
     17      -0.353654   0.347641   0.400872  -0.390594   0.179205   0.135492
     18       0.118541  -0.115312   0.133373  -0.129874  -0.065579  -0.050001
     19       0.412073  -0.405227   0.449895  -0.438719  -0.209977  -0.158101
     20      -0.154101   0.151605  -0.184461   0.179836   0.074519   0.056279
     21      -0.086983  -0.088668  -0.091624  -0.094216   0.029178  -0.040288
     22      -0.414033  -0.415981  -0.446248  -0.457937   0.157095  -0.221387
     23       0.155180   0.156047   0.182903   0.187690  -0.055758   0.078763
     24       0.242832   0.253469   0.001807   0.001199   0.445742  -0.605376
     25      -0.002713  -0.003518   0.010692   0.009329  -0.008701   0.011851
     26      -0.170015  -0.174997   0.003353   0.003165  -0.299116   0.406134
     27       0.057594   0.056695  -0.062619  -0.064061  -0.025766   0.037183
     28       0.275950   0.277680  -0.290060  -0.297601  -0.105105   0.148284
     29       0.350085   0.351991  -0.392272  -0.402394  -0.130110   0.184188


-----------
IR SPECTRUM
-----------

 Mode   freq       eps      Int      T**2         TX        TY        TZ
       cm**-1   L/(mol*cm) km/mol    a.u.
----------------------------------------------------------------------------
  6:     28.44   0.000000    0.00  0.000000  ( 0.000357  0.000168  0.000245)
  7:    136.93   0.000042    0.21  0.000097  (-0.002057 -0.009193 -0.002817)
  8:    380.92   0.000211    1.07  0.000173  (-0.001461 -0.003272  0.012662)
  9:    488.20   0.000046    0.23  0.000029  ( 0.001021  0.005119  0.001493)
 10:    538.23   0.002931   14.81  0.001699  ( 0.040139 -0.009107  0.002237)
 11:    790.16   0.000280    1.41  0.000111  (-0.001137 -0.002656  0.010109)
 12:    865.59   0.000000    0.00  0.000000  ( 0.000383 -0.000051 -0.000015)
 13:    877.85   0.001340    6.77  0.000477  (-0.021260  0.004802 -0.001210)
 14:   1070.15   0.000000    0.00  0.000000  (-0.000018  0.000015  0.000033)
 15:   1103.41   0.000844    4.27  0.000239  (-0.003104 -0.014573 -0.004088)
 16:   1226.39   0.012837   64.87  0.003266  (-0.055644  0.012666 -0.003111)
 17:   1360.70   0.003514   17.76  0.000806  (-0.003471 -0.007043  0.027282)
 18:   1372.09   0.014526   73.41  0.003304  ( 0.055960 -0.012732  0.003201)
 19:   1426.48   0.000190    0.96  0.000042  ( 0.006266 -0.001483  0.000410)
 20:   1437.31   0.004195   21.20  0.000911  (-0.003372 -0.007507  0.029036)
 21:   1438.59   0.000003    0.01  0.000001  (-0.000006  0.000129 -0.000736)
 22:   1459.50   0.003914   19.78  0.000837  (-0.005740 -0.027285 -0.007709)
 23:   1835.93   0.034130  172.48  0.005801  ( 0.008353  0.018904 -0.073309)
 24:   3024.67   0.000233    1.18  0.000024  (-0.004775  0.001071 -0.000205)
 25:   3031.06   0.000833    4.21  0.000086  ( 0.001009  0.002285 -0.008917)
 26:   3097.41   0.000001    0.00  0.000000  (-0.000063 -0.000206 -0.000143)
 27:   3104.10   0.002869   14.50  0.000288  ( 0.003311  0.016012  0.004587)
 28:   3155.80   0.001423    7.19  0.000141  (-0.011298  0.002952 -0.002092)
 29:   3156.37   0.000994    5.03  0.000098  ( 0.002874  0.002004 -0.009276)

* The epsilon (eps) is given for a Dirac delta lineshape.
** The dipole moment derivative (T) already includes vibrational overlap.

The first frequency considered to be a vibration is 6
The total number of vibrations considered is 24


--------------------------
THERMOCHEMISTRY AT 298.15K
--------------------------

Temperature         ... 298.15 K
Pressure            ... 1.00 atm
Total Mass          ... 58.08 AMU

Throughout the following assumptions are being made:
  (1) The electronic state is orbitally nondegenerate
  (2) There are no thermally accessible electronically excited states
  (3) Hindered rotations indicated by low frequency modes are not
      treated as such but are treated as vibrations and this may
      cause some error
  (4) All equations used are the standard statistical mechanics
      equations for an ideal gas
  (5) All vibrations are strictly harmonic

freq.      28.44  E(vib)   ...       0.55 
freq.     136.93  E(vib)   ...       0.42 
freq.     380.92  E(vib)   ...       0.21 
freq.     488.20  E(vib)   ...       0.15 
freq.     538.23  E(vib)   ...       0.12 
freq.     790.16  E(vib)   ...       0.05 
freq.     865.59  E(vib)   ...       0.04 
freq.     877.85  E(vib)   ...       0.04 
freq.    1070.15  E(vib)   ...       0.02 
freq.    1103.41  E(vib)   ...       0.02 
freq.    1226.39  E(vib)   ...       0.01 
freq.    1360.70  E(vib)   ...       0.01 
freq.    1372.09  E(vib)   ...       0.01 
freq.    1426.48  E(vib)   ...       0.00 
freq.    1437.31  E(vib)   ...       0.00 
freq.    1438.59  E(vib)   ...       0.00 
freq.    1459.50  E(vib)   ...       0.00 
freq.    1835.93  E(vib)   ...       0.00 
freq.    3024.67  E(vib)   ...       0.00 
freq.    3031.06  E(vib)   ...       0.00 
freq.    3097.41  E(vib)   ...       0.00 
freq.    3104.10  E(vib)   ...       0.00 
freq.    3155.80  E(vib)   ...       0.00 
freq.    3156.37  E(vib)   ...       0.00 

------------
INNER ENERGY
------------

The inner energy is: U= E(el) + E(ZPE) + E(vib) + E(rot) + E(trans)
    E(el)   - is the total energy from the electronic structure calculation
              = E(kin-el) + E(nuc-el) + E(el-el) + E(nuc-nuc)
    E(ZPE)  - the the zero temperature vibrational energy from the frequency calculation
    E(vib)  - the the finite temperature correction to E(ZPE) due to population
              of excited vibrational states
    E(rot)  - is the rotational thermal energy
    E(trans)- is the translational thermal energy

Summary of contributions to the inner energy U:
Electronic energy                ...   -192.89587193 Eh
Zero point energy                ...      0.08293964 Eh      52.05 kcal/mol
Thermal vibrational correction   ...      0.00261868 Eh       1.64 kcal/mol
Thermal rotational correction    ...      0.00141627 Eh       0.89 kcal/mol
Thermal translational correction ...      0.00141627 Eh       0.89 kcal/mol
-----------------------------------------------------------------------
Total thermal energy                   -192.80748107 Eh


Summary of corrections to the electronic energy:
(perhaps to be used in another calculation)
Total thermal correction                  0.00545122 Eh       3.42 kcal/mol
Non-thermal (ZPE) correction              0.08293964 Eh      52.05 kcal/mol
-----------------------------------------------------------------------
Total correction                          0.08839086 Eh      55.47 kcal/mol


--------
ENTHALPY
--------

The enthalpy is H = U + kB*T
                kB is Boltzmann's constant
Total free energy                 ...   -192.80748107 Eh 
Thermal Enthalpy correction       ...      0.00094421 Eh       0.59 kcal/mol
-----------------------------------------------------------------------
Total Enthalpy                    ...   -192.80653686 Eh


Note: Only C1 symmetry has been detected, increase convergence thresholds 
      if your molecule has a higher symmetry. Symmetry factor of 1.0 is   
      used for the rotational entropy correction. 
 

Note: Rotational entropy computed according to Herzberg 
Infrared and Raman Spectra, Chapter V,1, Van Nostrand Reinhold, 1945 
Point Group:  C1, Symmetry Number:   1  
Rotational constants in cm-1:     0.337040     0.281933     0.162896 

Vibrational entropy computed according to the QRRHO of S. Grimme
Chem.Eur.J. 2012 18 9955


-------
ENTROPY
-------

The entropy contributions are T*S = T*(S(el)+S(vib)+S(rot)+S(trans))
     S(el)   - electronic entropy
     S(vib)  - vibrational entropy
     S(rot)  - rotational entropy
     S(trans)- translational entropy
The entropies will be listed as multiplied by the temperature to get
units of energy

Electronic entropy                ...      0.00000000 Eh      0.00 kcal/mol
Vibrational entropy               ...      0.00474896 Eh      2.98 kcal/mol
Rotational entropy                ...      0.01147862 Eh      7.20 kcal/mol
Translational entropy             ...      0.01810171 Eh     11.36 kcal/mol
-----------------------------------------------------------------------
Final entropy term                ...      0.03432929 Eh     21.54 kcal/mol

In case the symmetry of your molecule has not been determined correctly
or in case you have a reason to use a different symmetry number we print 
out the resulting rotational entropy values for sn=1,12 :
 --------------------------------------------------------
|  sn= 1 | S(rot)=       0.01147862 Eh      7.20 kcal/mol|
|  sn= 2 | S(rot)=       0.01082416 Eh      6.79 kcal/mol|
|  sn= 3 | S(rot)=       0.01044133 Eh      6.55 kcal/mol|
|  sn= 4 | S(rot)=       0.01016971 Eh      6.38 kcal/mol|
|  sn= 5 | S(rot)=       0.00995902 Eh      6.25 kcal/mol|
|  sn= 6 | S(rot)=       0.00978687 Eh      6.14 kcal/mol|
|  sn= 7 | S(rot)=       0.00964133 Eh      6.05 kcal/mol|
|  sn= 8 | S(rot)=       0.00951525 Eh      5.97 kcal/mol|
|  sn= 9 | S(rot)=       0.00940404 Eh      5.90 kcal/mol|
|  sn=10 | S(rot)=       0.00930456 Eh      5.84 kcal/mol|
|  sn=11 | S(rot)=       0.00921457 Eh      5.78 kcal/mol|
|  sn=12 | S(rot)=       0.00913242 Eh      5.73 kcal/mol|
 --------------------------------------------------------


-------------------
GIBBS FREE ENERGY
-------------------

The Gibbs free energy is G = H - T*S

Total enthalpy                    ...   -192.80653686 Eh 
Total entropy correction          ...     -0.03432929 Eh    -21.54 kcal/mol
-----------------------------------------------------------------------
Final Gibbs free energy         ...   -192.84086615 Eh

For completeness - the Gibbs free energy minus the electronic energy
G-E(el)                           ...      0.05500578 Eh     34.52 kcal/mol


Timings for individual modules:

Sum of individual times         ...       50.465 sec (=   0.841 min)
GTO integral calculation        ...        2.815 sec (=   0.047 min)   5.6 %
SCF iterations                  ...       18.730 sec (=   0.312 min)  37.1 %
SCF Gradient evaluation         ...        6.457 sec (=   0.108 min)  12.8 %
Geometry relaxation             ...        0.206 sec (=   0.003 min)   0.4 %
Analytical frequency calculation...       22.258 sec (=   0.371 min)  44.1 %
                             ****ORCA TERMINATED NORMALLY****
TOTAL RUN TIME: 0 days 0 hours 0 minutes 52 seconds 897 msec
