
                                 *****************
                                 * O   R   C   A *
                                 *****************

                                            #,                                       
                                            ###                                      
                                            ####                                     
                                            #####                                    
                                            ######                                   
                                           ########,                                 
                                     ,,################,,,,,                         
                               ,,#################################,,                 
                          ,,##########################################,,             
                       ,#########################################, ''#####,          
                    ,#############################################,,   '####,        
                  ,##################################################,,,,####,       
                ,###########''''           ''''###############################       
              ,#####''   ,,,,##########,,,,          '''####'''          '####       
            ,##' ,,,,###########################,,,                        '##       
           ' ,,###''''                  '''############,,,                           
         ,,##''                                '''############,,,,        ,,,,,,###''
      ,#''                                            '''#######################'''  
     '                                                          ''''####''''         
             ,#######,   #######,   ,#######,      ##                                
            ,#'     '#,  ##    ##  ,#'     '#,    #''#        ,####,    ,#,          
            ##       ##  ##   ,#'  ##            #'  '#       #'       ,# #          
            ##       ##  #######   ##           ,######,      #####,      #          
            '#,     ,#'  ##    ##  '#,     ,#' ,#      #,     #,   #      #          
             '#######'   ##     ##  '#######'  #'      '#     '####' #    #          



                #########################################################
                #                        -***-                          #
                #          Department of theory and spectroscopy        #
                #                                                       #
                #                      Frank Neese                      #
                #                                                       #
                #     Directorship, Architecture, Infrastructure        #
                #                    SHARK, DRIVERS                     #
                #        Core code/Algorithms in most modules           #
                #                                                       #
                #        Max Planck Institute fuer Kohlenforschung      #
                #                Kaiser Wilhelm Platz 1                 #
                #                 D-45470 Muelheim/Ruhr                 #
                #                      Germany                          #
                #                                                       #
                #                  All rights reserved                  #
                #                        -***-                          #
                #########################################################


                         Program Version 6.1.1  -  RELEASE   -
                                (GIT: $487d211c$)
                          ($2025-11-21 10:33:24 +0100$)


 With contributions from (in alphabetic order):
[Max-Planck-Institut fuer Kohlenforschung]                               
  Daniel Aravena         : Magnetic Suceptibility                        
  Michael Atanasov       : Ab Initio Ligand Field Theory (pilot matlab implementation)
  Alexander A. Auer      : GIAO ZORA, VPT2 properties, NMR spectrum      
  Ute Becker             : All parallelization in ORCA, NUMFREQ, NUMCALC 
  Giovanni Bistoni       : ED, misc. LED, open-shell LED, HFLD           
  Dmytro Bykov           : pre 5.0 version of the SCF Hessian            
  Marcos Casanova-Páez   : Triplet and SCS-CIS(D). UHF-(DLPNO)-IP/EA/STEOM-CCSD. UHF-CVS-IP/STEOM-CCSD   
  Vijay G. Chilkuri      : MRCI spin determinant printing, contributions to CSF-ICE 
  Pauline Colinet        : FMM embedding                                 
  Dipayan Datta          : RHF DLPNO-CCSD density                        
  Achintya Kumar Dutta   : EOM-CC, STEOM-CC                              
  Nicolas Foglia         : Exact transition moments, OPA infrastructure, MCD improvements    
  Dmitry Ganyushin       : Spin-Orbit,Spin-Spin,Magnetic field MRCI      
  Miquel Garcia-Rates    : C-PCM and meta-GGA Hessian, CCSD/C-PCM, Gaussian charge scheme 
  Tiago L. C. Gouveia    : GS-ROHF, GS-ROCIS                             
  Yang Guo               : DLPNO-NEVPT2, F12-NEVPT2, CIM, IAO-localization        
  Andreas Hansen         : Spin unrestricted coupled pair/coupled cluster methods 
  Ingolf Harden          : AUTO-CI MPn and infrastructure                
  Benjamin Helmich-Paris : MC-RPA, TRAH-(SCF,CASSCF), AVAS, COSX integrals, SCF dyn. polar., MC-PDFT, srDFT 
  Lee Huntington         : MR-EOM, pCC                                   
  Robert Izsak           : Overlap fitted RIJCOSX, COSX-SCS-MP3, EOM     
  Riya Kayal             : Wick's Theorem for AUTO-CI, AUTO-CI UHF-CCSDT 
  Emily Kempfer          : AUTO-CI RHF CISDT and CCSDT, approximate NEVPT4
  Christian Kollmar      : KDIIS, OOCD, Brueckner-CCSD(T), CCSD density, CASPT2, CASPT2-K, improved NEVPT2 
  Axel Koslowski         : Symmetry handling                             
  Simone Kossmann        : meta-GGA functionals, TD-DFT gradient, OOMP2, (MP2 Hessian; deprecated post 5.0) 
  Lucas Lang             : DCDCAS, Hyperfine gauge corrections, ICE-SOC+SSC
  Marvin Lechner         : AUTO-CI (C++ implementation), FIC-MRCC        
  Spencer Leger          : CASSCF response                               
  Dagmar Lenk            : GEPOL surface, SMD, ORCA-2-JSON               
  Dimitrios Liakos       : Extrapolation schemes; Compound Job, Property file
  Dimitrios Manganas     : Further ROCIS development; embedding schemes. LFT, Crystal Embedding 
  Dimitrios Pantazis     : SARC Basis sets                               
  Anastasios Papadopoulos: AUTO-CI, single reference methods and gradients 
  Taras Petrenko         : pre 6.0 DFT Hessian and TD-DFT gradient,  ECA, NRVS 
  Petra Pikulova         : Analytic Raman intensities                    
  Peter Pinski           : DLPNO-MP2, DLPNO-MP2 Gradient                 
  Shashank Vittal Rao    : ES-AILFT, MagRelax                            
  Christoph Reimann      : Effective Core Potentials                     
  Marius Retegan         : Local ZFS, SOC                                
  Christoph Riplinger    : Optimizer, TS searches, QM/MM, DLPNO-CCSD(T), (RO)-DLPNO pert. Triples 
  Michael Roemelt        : Original ROCIS implementation, recursive CI coupling coefficients
  Masaaki Saitow         : Open-shell DLPNO-CCSD energy and density      
  Barbara Sandhoefer     : DKH picture change effects                    
  Yorick L. A. Schmerwitz: GMF and freeze-and-release deltaSCF, NEB S-IDPP initial path                    
  Kantharuban Sivalingam : CASSCF convergence/infrastructure, NEVPT2, NEVPT3, NEVPT4(SD), FIC-MRCI and CEPA variants
  Bernardo de Souza      : ESD, SOC TD-DFT                               
  Georgi L. Stoychev     : AutoAux, RI-MP2 NMR, DLPNO-MP2 response, X2C  
  Van Anh Tran           : RI-MP2 g-tensors                              
  Willem Van den Heuvel  : Paramagnetic NMR                              
  Zikuan Wang            : NOTCH, Electric field optimization            
  Frank Wennmohs         : Technical directorship and infrastructure     
  Hang Xu                : AUTO-CI-Response properties                   
                                                                         
[FACCTs GmbH]                                                            
  Markus Bursch, Nicolas Foglia, Miquel Garcia-Rates, Ingolf Harden, Hagen Neugebauer, Anastasios Papadopoulos, 
  Christoph Riplinger, Bernardo de Souza, Georgi L. Stoychev                                                    
                                                                 
  APM, various basis sets, CI-OPT, improved COSX, DLPNO-Multilevel,           
  DOCKER, DRACO, updates on ESD, Fragmentator, GOAT, IRC, LR-CPCM, L-BFGS, MBIS, meta-GGA TD-DFT gradient, ML-optimized integration grids, 
  MM, NACMEs, nearIR, NEB, NEB-TS, NL-DFT gradient (VV10), 2- and 3-layer-ONIOM, interface openCOSMO-RS, QMMM,   
  Crystal-QMMM, RESP, rigid body optimization, SF, symmetry and pop. for TD-DFT, various functionals, SOLVATOR                                   
                                                                         
[Other institutions]                                                     
  V. Asgeirsson          : NEB                                           
  Christoph Bannwarth    : sTDA-DFT, sTD-DFT, PBEh-3c, B97-3c, D3        
  Giovanni Bistoni       : ETS/NOCV, ADLD/ADEX, COVALED                  
  Martin Brehm           : Molecular dynamics                            
  Ronald Cardenas        : ETS/NOCV                                      
  Martina Colucci        : COVALED                                       
  Sebastian Ehlert       : rSCAN, r2SCAN, r2SCAN-3c, D4, dhf basis sets  
  Marvin Friede          : D4 for Fr, Ra, Ac-Lr                          
  Lars Goerigk           : TD-DFT with DH, B97 family of functionals     
  Stefan Grimme          : VdW corrections, initial TS optimization, DFT functionals, gCP, sTDA/sTD-DF 
  Waldemar Hujo          : DFT-NL                                        
  H. Jonsson             : NEB                                           
  Holger Kruse           : gCP                                           
  Marcel Mueller         : wB97X-3c, vDZP basis set                      
  Hagen Neugebauer       : wr2SCAN, Native XTB                           
  Gianluca Regni         : ADLD/ADEX                                     
  Tobias Risthaus        : pre 6.0 range-separated hybrid DFT and stability analysis
  Lukas Wittmann         : regularized MP2, r2SCAN double-hybrids, wr2SCAN        
                                                                         
We gratefully acknowledge several colleagues who have allowed us to      
interface, adapt or use parts of their codes:                            
  Ed Valeev, F. Pavosevic, A. Kumar             : LibInt (2-el integral package), F12 methods 
  Garnet Chan, S. Sharma, J. Yang, R. Olivares  : DMRG                   
  Ulf Ekstrom                                   : XCFun DFT Library      
  Mihaly Kallay                                 : mrcc  (arbitrary order and MRCC methods)
  Frank Weinhold                                : gennbo (NPA and NBO analysis)           
  Simon Mueller                                 : openCOSMO-RS                            
  Christopher J. Cramer and Donald G. Truhlar   : smd solvation model                     
  S Lehtola, MJT Oliveira, MAL Marques          : LibXC Library                           
  Liviu Ungur et al                             : ANISO software                          


 Your calculation uses the libint2 library for the computation of 2-el integrals
 For citations please refer to: http://libint.valeyev.net

 Your ORCA version has been built with support for libXC version: 7.0.0
 For citations please refer to: https://libxc.gitlab.io

 This ORCA versions uses:
   CBLAS   interface :  Fast vector & matrix operations
   LAPACKE interface :  Fast linear algebra routines
   SCALAPACK package :  Parallel linear algebra routines
   Shared memory     :  Shared parallel matrices
   BLAS/LAPACK       :  OpenBLAS 0.3.29  USE64BITINT DYNAMIC_ARCH NO_AFFINITY Cooperlake SINGLE_THREADED
        Core in use  :  Cooperlake
   Copyright (c) 2011-2014, The OpenBLAS Project


  ***********************************
  * Starting time: Thu Apr 23 06:34:40 2026
  * Host name:     DESKTOP-DC1WS01
  * Process ID:    366383
  * Working dir.:  /mnt/work-disk/work/test/acetone-opt.res
  ***********************************

NOTE: MaxCore=2000 MB was set to SCF,MP2,MDCI,CIPSI,MRCI,RASCI and CIS
      => If you want to overwrite this, your respective input block should be placed after the MaxCore statement
================================================================================

----- Orbital basis set information -----
Your calculation utilizes the basis: def2-SVP
   F. Weigend and R. Ahlrichs, Phys. Chem. Chem. Phys. 7, 3297 (2005).

----- AuxJ basis set information -----
Your calculation utilizes the auxiliary basis: def2/J
   H-Rn: F. Weigend, Phys. Chem. Chem. Phys. 8, 1057 (2006).
   Fr-Lr: K. Eichkorn, F. Weigend, O. Treutler, R. Ahlrichs; Theor. Chem. Acc. 97, 119 (1997).

================================================================================
                                        WARNINGS
                       Please study these warnings very carefully!
================================================================================


WARNING: Geometry Optimization
  ===> : Switching off AutoStart
         For restart on a previous wavefunction, please use MOREAD

================================================================================
                                       INPUT FILE
================================================================================
NAME = acetone-opt.inp
|  1> # Generated by MoleditPy ORCA Input Generator Pro Plugin
|  2> %pal nprocs 4 end
|  3> %maxcore 2000
|  4> 
|  5> ! B3LYP def2-SVP RIJCOSX Def2/J Opt Freq
|  6> 
|  7> * xyz 0 1
|  8>   C       -1.265992     0.241506     0.092371
|  9>   C        0.068495     0.155258    -0.597576
| 10>   O        0.204122     0.462684    -1.780855
| 11>   C        1.228925    -0.325526     0.231017
| 12>   H       -2.022220     0.601195    -0.610859
| 13>   H       -1.200942     0.940754     0.929593
| 14>   H       -1.558302    -0.748971     0.449621
| 15>   H        1.026390    -1.336406     0.593257
| 16>   H        2.135769    -0.343814    -0.379795
| 17>   H        1.383755     0.353319     1.073226
| 18> *
| 19> 
| 20>                          ****END OF INPUT****
================================================================================

                       *****************************
                       * Geometry Optimization Run *
                       *****************************

Geometry optimization settings:
Update method            Update   .... BFGS
Choice of coordinates    CoordSys .... (2022) Redundant Internals
Initial Hessian          InHess   .... Almloef's Model
Max. no of cycles        MaxIter  .... 50

Convergence Tolerances:
Energy Change            TolE     ....  5.0000e-06 Eh
Max. Gradient            TolMAXG  ....  3.0000e-04 Eh/bohr
RMS Gradient             TolRMSG  ....  1.0000e-04 Eh/bohr
Max. Displacement        TolMAXD  ....  4.0000e-03 bohr
RMS Displacement         TolRMSD  ....  2.0000e-03 bohr
Strict Convergence                .... False

------------------------------------------------------------------------------
                        ORCA OPTIMIZATION COORDINATE SETUP
------------------------------------------------------------------------------

The optimization will be done in redundant internal coordinates (2022)
Making redundant internal coordinates   ...  (2022 redundants) done
Evaluating the initial hessian          ...  (Almloef) done
Evaluating the coordinates              ...  done
Calculating the B-matrix                .... done
Calculating the G-matrix                .... done
The number of degrees of freedom        ....   34

    -----------------------------------------------------------------
                    Redundant Internal Coordinates


    -----------------------------------------------------------------
         Definition                    Initial Value    Approx d2E/dq
    -----------------------------------------------------------------
      1. B(C   1,C   0)                  1.5048         0.409861   
      2. B(O   2,C   1)                  1.2301         1.007036   
      3. B(C   3,C   1)                  1.5048         0.409863   
      4. B(H   4,C   0)                  1.0935         0.355471   
      5. B(H   5,C   0)                  1.0928         0.356470   
      6. B(H   6,C   0)                  1.0928         0.356472   
      7. B(H   7,C   3)                  1.0928         0.356472   
      8. B(H   8,C   3)                  1.0935         0.355470   
      9. B(H   9,C   3)                  1.0928         0.356471   
     10. A(H   5,C   0,H   6)          110.2092         0.289916   
     11. A(H   4,C   0,H   6)          108.8683         0.289789   
     12. A(C   1,C   0,H   4)          109.7118         0.328606   
     13. A(C   1,C   0,H   5)          109.5830         0.328758   
     14. A(C   1,C   0,H   6)          109.5831         0.328758   
     15. A(H   4,C   0,H   5)          108.8683         0.289788   
     16. A(O   2,C   1,C   3)          121.6364         0.436782   
     17. A(C   0,C   1,C   3)          116.7272         0.375109   
     18. A(C   0,C   1,O   2)          121.6364         0.436782   
     19. A(H   7,C   3,H   9)          110.2092         0.289916   
     20. A(C   1,C   3,H   9)          109.5831         0.328758   
     21. A(H   7,C   3,H   8)          108.8683         0.289788   
     22. A(C   1,C   3,H   8)          109.7118         0.328606   
     23. A(H   8,C   3,H   9)          108.8682         0.289788   
     24. A(C   1,C   3,H   7)          109.5830         0.328758   
     25. D(O   2,C   1,C   0,H   5)   -119.4772         0.012442   
     26. D(C   3,C   1,C   0,H   4)   -180.0000         0.012442   
     27. D(O   2,C   1,C   0,H   4)     -0.0002         0.012442   
     28. D(C   3,C   1,C   0,H   5)     60.5231         0.012442   
     29. D(O   2,C   1,C   0,H   6)    119.4768         0.012442   
     30. D(H   7,C   3,C   1,O   2)   -119.4769         0.012442   
     31. D(H   7,C   3,C   1,C   0)     60.5228         0.012442   
     32. D(H   9,C   3,C   1,C   0)    -60.5233         0.012442   
     33. D(H   8,C   3,C   1,O   2)      0.0001         0.012442   
     34. D(H   8,C   3,C   1,C   0)    179.9998         0.012442   
    -----------------------------------------------------------------

Number of atoms                         .... 10
Number of degrees of freedom            .... 34


         *************************************************************
         *                GEOMETRY OPTIMIZATION CYCLE   1            *
         *************************************************************
---------------------------------
CARTESIAN COORDINATES (ANGSTROEM)
---------------------------------
  C     -1.265992    0.241506    0.092371
  C      0.068495    0.155258   -0.597576
  O      0.204122    0.462684   -1.780855
  C      1.228925   -0.325526    0.231017
  H     -2.022220    0.601195   -0.610859
  H     -1.200942    0.940754    0.929593
  H     -1.558302   -0.748971    0.449621
  H      1.026390   -1.336406    0.593257
  H      2.135769   -0.343814   -0.379795
  H      1.383755    0.353319    1.073226

----------------------------
CARTESIAN COORDINATES (A.U.)
----------------------------
  NO LB      ZA    FRAG     MASS         X           Y           Z
   0 C     6.0000    0    12.011   -2.392378    0.456380    0.174556
   1 C     6.0000    0    12.011    0.129437    0.293395   -1.129255
   2 O     8.0000    0    15.999    0.385735    0.874346   -3.365328
   3 C     6.0000    0    12.011    2.322332   -0.615155    0.436559
   4 H     1.0000    0     1.008   -3.821442    1.136094   -1.154356
   5 H     1.0000    0     1.008   -2.269451    1.777767    1.756676
   6 H     1.0000    0     1.008   -2.944764   -1.415350    0.849661
   7 H     1.0000    0     1.008    1.939596   -2.525441    1.121093
   8 H     1.0000    0     1.008    4.036018   -0.649714   -0.717709
   9 H     1.0000    0     1.008    2.614918    0.667676    2.028103

--------------------------------
INTERNAL COORDINATES (ANGSTROEM)
--------------------------------
 C      0   0   0     0.000000000000     0.00000000     0.00000000
 C      1   0   0     1.504766139133     0.00000000     0.00000000
 O      2   1   0     1.230062852234   121.63642483     0.00000000
 C      2   1   3     1.504764898316   116.72715135   180.00027554
 H      1   2   3     1.093521557906   109.71180463     0.00000000
 H      1   2   3     1.092757953660   109.58302381   240.52278429
 H      1   2   3     1.092756782696   109.58310597   119.47675267
 H      4   2   1     1.092756431335   109.58298021    60.52282821
 H      4   2   1     1.093522652085   109.71178438   179.99981900
 H      4   2   1     1.092757458271   109.58308222   299.47673855

---------------------------
INTERNAL COORDINATES (A.U.)
---------------------------
 C      0   0   0     0.000000000000     0.00000000     0.00000000
 C      1   0   0     2.843595898560     0.00000000     0.00000000
 O      2   1   0     2.324481918232   121.63642483     0.00000000
 C      2   1   3     2.843593553756   116.72715135   180.00027554
 H      1   2   3     2.066456265981   109.71180463     0.00000000
 H      1   2   3     2.065013263082   109.58302381   240.52278429
 H      1   2   3     2.065011050281   109.58310597   119.47675267
 H      4   2   1     2.065010386305   109.58298021    60.52282821
 H      4   2   1     2.066458333681   109.71178438   179.99981900
 H      4   2   1     2.065012326931   109.58308222   299.47673855

---------------------
BASIS SET INFORMATION
---------------------
There are 3 groups of distinct atoms

 Group   1 Type C   : 7s4p1d contracted to 3s2p1d pattern {511/31/1}
 Group   2 Type O   : 7s4p1d contracted to 3s2p1d pattern {511/31/1}
 Group   3 Type H   : 4s1p contracted to 2s1p pattern {31/1}

Atom   0C    basis set group =>   1
Atom   1C    basis set group =>   1
Atom   2O    basis set group =>   2
Atom   3C    basis set group =>   1
Atom   4H    basis set group =>   3
Atom   5H    basis set group =>   3
Atom   6H    basis set group =>   3
Atom   7H    basis set group =>   3
Atom   8H    basis set group =>   3
Atom   9H    basis set group =>   3
---------------------------------
AUXILIARY/J BASIS SET INFORMATION
---------------------------------
There are 3 groups of distinct atoms

 Group   1 Type C   : 12s5p4d2f1g contracted to 6s4p3d1f1g pattern {711111/2111/211/2/1}
 Group   2 Type O   : 12s5p4d2f1g contracted to 6s4p3d1f1g pattern {711111/2111/211/2/1}
 Group   3 Type H   : 5s2p1d contracted to 3s1p1d pattern {311/2/1}

Atom   0C    basis set group =>   1
Atom   1C    basis set group =>   1
Atom   2O    basis set group =>   2
Atom   3C    basis set group =>   1
Atom   4H    basis set group =>   3
Atom   5H    basis set group =>   3
Atom   6H    basis set group =>   3
Atom   7H    basis set group =>   3
Atom   8H    basis set group =>   3
Atom   9H    basis set group =>   3


           ************************************************************
           *        Program running with 4 parallel MPI-processes     *
           *              working on a common directory               *
           ************************************************************
------------------------------------------------------------------------------
                             ORCA STARTUP CALCULATIONS
                           -- RI-GTO INTEGRALS CHOSEN --
------------------------------------------------------------------------------
------------------------------------------------------------------------------
                   ___                                                        
                  /   \      - P O W E R E D   B Y -                         
                 /     \                                                     
                 |  |  |   _    _      __       _____    __    __             
                 |  |  |  | |  | |    /  \     |  _  \  |  |  /  |          
                  \  \/   | |  | |   /    \    | | | |  |  | /  /          
                 / \  \   | |__| |  /  /\  \   | |_| |  |  |/  /          
                |  |  |   |  __  | /  /__\  \  |    /   |      \           
                |  |  |   | |  | | |   __   |  |    \   |  |\   \          
                \     /   | |  | | |  |  |  |  | |\  \  |  | \   \       
                 \___/    |_|  |_| |__|  |__|  |_| \__\ |__|  \__/        
                                                                              
                      - O R C A' S   B I G   F R I E N D -                    
                                      &                                       
                       - I N T E G R A L  F E E D E R -                       
                                                                              
 v1 FN, 2020, v2 2021, v3 2022-2024                                           
------------------------------------------------------------------------------


----------------------
SHARK INTEGRAL PACKAGE
----------------------

Number of atoms                             ...     10
Number of basis functions                   ...     86
Number of shells                            ...     42
Maximum angular momentum                    ...      2
Integral batch strategy                     ... SHARK/LIBINT Hybrid
RI-J (if used) integral strategy            ... SPLIT-RIJ (Revised 2003 algorithm where possible)
Printlevel                                  ...      1
Contraction scheme used                     ... SEGMENTED contraction
Prescreening option                         ... SCHWARTZ
   Thresh                                   ... 2.500e-11
   Tcut                                     ... 2.500e-12
   Tpresel                                  ... 2.500e-12 
Coulomb Range Separation                    ... NOT USED
Exchange Range Separation                   ... NOT USED
Multipole approximations                    ... NOT USED
Finite Nucleus Model                        ... NOT USED
CABS basis                                  ... NOT available
Auxiliary Coulomb fitting basis             ... AVAILABLE
   # of basis functions in Aux-J            ...    262
   # of shells in Aux-J                     ...     90
   Maximum angular momentum in Aux-J        ...      4
Auxiliary J/K fitting basis                 ... NOT available
Auxiliary Correlation fitting basis         ... NOT available
Auxiliary 'external' fitting basis          ... NOT available

Checking pre-screening integrals            ... done (  0.0 sec) Dimension = 42
   => SHARK Basis and OBASIS are compatible. Storing Pre-screening
Shell pair information
Shell pair cut-off parameter TPreSel        ...   2.5e-12
Total number of shell pairs                 ...       903
Shell pairs after pre-screening             ...       898
Total number of primitive shell pairs       ...      3151
Primitive shell pairs kept                  ...      2591
          la=0 lb=0:    297 shell pairs
          la=1 lb=0:    334 shell pairs
          la=1 lb=1:    105 shell pairs
          la=2 lb=0:     96 shell pairs
          la=2 lb=1:     56 shell pairs
          la=2 lb=2:     10 shell pairs

Checking whether 4 symmetric matrices of dimension 86 fit in memory
:Max Core in MB      =   2000.00
 MB in use           =      4.42
 MB left             =   1995.58
 MB needed           =      0.11
 Data fit in memory  = YES
Calculating RI/J V-Matrix + Cholesky decomp.... done (  0.0 sec)
Calculating Nuclear repulsion               ... done (  0.0 sec) ENN=    119.338849102533 Eh

Diagonalization of the overlap matrix:
Smallest eigenvalue                        ... 3.249e-03
Time for diagonalization                   ...    0.001 sec
Threshold for overlap eigenvalues          ... 1.000e-07
Number of eigenvalues below threshold      ... 0
Time for construction of square roots      ...    0.000 sec
Total time needed                          ...    0.003 sec

-------------------
DFT GRID GENERATION
-------------------

General Integration Accuracy     IntAcc      ... 4.388
Radial Grid Type                 RadialGrid  ... OptM3 with GC (2021)
Angular Grid (max. ang.)         AngularGrid ... 4 (Lebedev-302)
Angular grid pruning method      GridPruning ... 4 (adaptive)
Weight generation scheme         WeightScheme... mBecke (2022)
Basis function cutoff            BFCut       ... 1.0000e-11
Integration weight cutoff        WCut        ... 1.0000e-14
Partially contracted basis set               ... off
Rotationally invariant grid construction     ... off
Angular grids for H and He will be reduced by one unit

Total number of grid points                  ...    43767
Total number of batches                      ...      690
Average number of points per batch           ...       63
Average number of grid points per atom       ...     4377

--------------------
COSX GRID GENERATION
--------------------

GRIDX 1
-------
General Integration Accuracy     IntAcc      ... 3.816
Radial Grid Type                 RadialGrid  ... OptM3 with GC (2021)
Angular Grid (max. ang.)         AngularGrid ... 1 (Lebedev-50)
Angular grid pruning method      GridPruning ... 4 (adaptive)
Weight generation scheme         WeightScheme... mBecke (2022)
Basis function cutoff            BFCut       ... 1.0000e-11
Integration weight cutoff        WCut        ... 1.0000e-14
Partially contracted basis set               ... on
Rotationally invariant grid construction     ... off
Angular grids for H and He will be reduced by one unit

Total number of grid points                  ...     5636
Total number of batches                      ...       51
Average number of points per batch           ...      110
Average number of grid points per atom       ...      564
UseSFitting                                  ... on

GRIDX 2
-------
General Integration Accuracy     IntAcc      ... 4.020
Radial Grid Type                 RadialGrid  ... OptM3 with GC (2021)
Angular Grid (max. ang.)         AngularGrid ... 2 (Lebedev-110)
Angular grid pruning method      GridPruning ... 4 (adaptive)
Weight generation scheme         WeightScheme... mBecke (2022)
Basis function cutoff            BFCut       ... 1.0000e-11
Integration weight cutoff        WCut        ... 1.0000e-14
Partially contracted basis set               ... on
Rotationally invariant grid construction     ... off
Angular grids for H and He will be reduced by one unit

Total number of grid points                  ...    12023
Total number of batches                      ...       98
Average number of points per batch           ...      122
Average number of grid points per atom       ...     1202
UseSFitting                                  ... on

GRIDX 3
-------
General Integration Accuracy     IntAcc      ... 4.338
Radial Grid Type                 RadialGrid  ... OptM3 with GC (2021)
Angular Grid (max. ang.)         AngularGrid ... 3 (Lebedev-194)
Angular grid pruning method      GridPruning ... 4 (adaptive)
Weight generation scheme         WeightScheme... mBecke (2022)
Basis function cutoff            BFCut       ... 1.0000e-11
Integration weight cutoff        WCut        ... 1.0000e-14
Partially contracted basis set               ... on
Rotationally invariant grid construction     ... off
Angular grids for H and He will be reduced by one unit

Total number of grid points                  ...    26453
Total number of batches                      ...      211
Average number of points per batch           ...      125
Average number of grid points per atom       ...     2645
UseSFitting                                  ... on
Grids setup in   0.3 sec
Initializing property integral containers    ... done (  0.0 sec)

SHARK setup successfully completed in   0.3 seconds

Maximum memory used throughout the entire STARTUP-calculation: 13.8 MB


           ************************************************************
           *        Program running with 4 parallel MPI-processes     *
           *              working on a common directory               *
           ************************************************************
-------------------------------------------------------------------------------
                                 ORCA GUESS
                   Start orbitals & Density for SCF / CASSCF
-------------------------------------------------------------------------------

------------
SCF SETTINGS
------------
Hamiltonian:
 Density Functional     Method          .... DFT(GTOs)
 Exchange Functional    Exchange        .... B88
   X-Alpha parameter    XAlpha          ....  0.666667
   Becke's b parameter  XBeta           ....  0.004200
 Correlation Functional Correlation     .... LYP
 LDA part of GGA corr.  LDAOpt          .... VWN-5
 Gradients option       PostSCFGGA      .... off
 Hybrid DFT is turned on
   Fraction HF Exchange ScalHFX         ....  0.200000
   Scaling of DF-GGA-X  ScalDFX         ....  0.720000
   Scaling of DF-GGA-C  ScalDFC         ....  0.810000
   Scaling of DF-LDA-C  ScalLDAC        ....  1.000000
   Perturbative correction              ....  0.000000
   NL short-range parameter             ....  4.800000
 RI-approximation to the Coulomb term is turned on
   Number of AuxJ basis functions       .... 262
   RIJ-COSX (HFX calculated with COS-X)).... on


General Settings:
 Integral files         IntName         .... acetone-opt
 Hartree-Fock type      HFTyp           .... RHF
 Total Charge           Charge          ....    0
 Multiplicity           Mult            ....    1
 Number of Electrons    NEL             ....   32
 Basis Dimension        Dim             ....   86
 Nuclear Repulsion      ENuc            ....    119.3388491025 Eh

Convergence Acceleration:
 AO-DIIS                CNVDIIS         .... on
   Start iteration      DIISMaxIt       ....    12
   Startup error        DIISStart       ....  0.200000
   # of expansion vecs  DIISMaxEq       ....     5
   Bias factor          DIISBfac        ....   1.050
   Max. coefficient     DIISMaxC        ....  10.000
 MO-DIIS                CNVKDIIS        .... off
 Trust-Rad. Augm. Hess. CNVTRAH         .... auto
   Auto Start mean grad. ratio tolernc. ....  1.125000
   Auto Start start iteration           ....    50
   Auto Start num. interpolation iter.  ....    10
   Max. Number of Micro iterations      ....    24
   Max. Number of Macro iterations      .... Maxiter - #DIIS iter
   Number of Davidson start vectors     ....     2
   Converg. threshold    (grad. norm)   ....   1.000e-05
   Grad. Scal. Fac. for Micro threshold ....   0.100
   Minimum threshold for Micro iter.    ....   1.000e-02
   NR start threshold (gradient norm)   ....   1.000e-04
   Initial trust radius                 ....   0.400
   Minimum AH scaling param. (alpha)    ....   1.000
   Maximum AH scaling param. (alpha)    .... 1000.000
   Quad. conv. algorithm                .... NR
   White noise on init. David. guess    .... on
   Maximum white noise                  ....   0.010
   Pseudo random numbers                .... off
   Inactive MOs                         .... canonical
   Orbital update algorithm             .... Taylor
   Preconditioner                       .... Diag
   Full preconditioner red. dimension   ....   250
 SOSCF                 CNVSOSCF           .... on
   Start iteration     SOSCFMaxIt         ....   150
   Startup grad/error  SOSCFStart         ....  0.003300
   Hessian update      SOSCFHessUp        .... L-BFGS
   Autom. constraints  SOSCFAutoConstrain .... off
 Level Shifting         CNVShift        .... on
   Level shift para.    LevelShift      ....    0.2500
   Turn off err/grad.   ShiftErr        ....    0.0010
 Zerner damping         CNVZerner       .... off
 Static damping         CNVDamp         .... on
   Fraction old density DampFac         ....    0.7000
   Max. Damping (<1)    DampMax         ....    0.9800
   Min. Damping (>=0)   DampMin         ....    0.0000
   Turn off err/grad.   DampErr         ....    0.1000

SCF Procedure:
 Maximum # iterations   MaxIter         ....   125
 SCF integral mode      SCFMode         .... Direct
   Integral package                     .... SHARK and LIBINT hybrid scheme
 Reset frequency        DirectResetFreq ....    20
 Integral Threshold     Thresh          ....  2.500e-11 Eh
 Primitive CutOff       TCut            ....  2.500e-12 Eh

Convergence Tolerance:
 Convergence Check Mode ConvCheckMode   .... Total+1el-Energy
 Convergence forced     ConvForced      .... 0
 Energy Change          TolE            ....  1.000e-08 Eh
 1-El. energy change                    ....  1.000e-05 Eh
 Orbital Gradient       TolG            ....  1.000e-05
 Orbital Rotation angle TolX            ....  1.000e-05
 DIIS Error             TolErr          ....  5.000e-07

------------------------------
INITIAL GUESS: MODEL POTENTIAL
------------------------------
Loading Hartree-Fock densities                     ... done
Calculating cut-offs                               ... done
Initializing the effective Hamiltonian             ... done
Setting up the integral package (SHARK)            ... done
Starting the Coulomb interaction                   ... done (   0.0 sec)
Making the grid                                    ... done (   0.0 sec)
Mapping shells                                     ... done
Starting the XC term evaluation                    ... done (   0.0 sec)
  promolecular density results
     # of electrons  =     31.995680951
     EX              =    -25.366241704
     EC              =     -1.049429132
     EX+EC           =    -26.415670836
Transforming the Hamiltonian                       ... done (   0.0 sec)
Diagonalizing the Hamiltonian                      ... done (   0.0 sec)
Back transforming the eigenvectors                 ... done (   0.0 sec)
Now organizing SCF variables                       ... done
                      ------------------
                      INITIAL GUESS DONE (   0.1 sec)
                      ------------------
             **** ENERGY FILE WAS UPDATED (acetone-opt.en.tmp) ****
Finished Guess after   0.1 sec
Maximum memory used throughout the entire GUESS-calculation: 6.8 MB


           ************************************************************
           *        Program running with 4 parallel MPI-processes     *
           *              working on a common directory               *
           ************************************************************

-------------------------------------------------------------------------------------------
                                      ORCA LEAN-SCF
                              memory conserving SCF solver
-------------------------------------------------------------------------------------------

----------------------------------------D-I-I-S--------------------------------------------
Iteration    Energy (Eh)           Delta-E    RMSDP     MaxDP     DIISErr   Damp  Time(sec)
-------------------------------------------------------------------------------------------
               ***  Starting incremental Fock matrix formation  ***
    1    -192.7221410457580930     0.00e+00  1.47e-02  1.10e-01  2.55e-01  0.700   0.2
    2    -192.8050512264833003    -8.29e-02  9.77e-03  7.42e-02  9.81e-02  0.700   0.2
                               ***Turning on AO-DIIS***
    3    -192.8348479213464941    -2.98e-02  3.10e-03  1.90e-02  4.16e-02  0.700   0.2
    4    -192.8532779464319162    -1.84e-02  4.69e-03  2.53e-02  1.89e-02  0.000   0.2
    5    -192.8938775196150175    -4.06e-02  1.36e-03  1.05e-02  9.17e-03  0.000   0.2
                              *** Initializing SOSCF ***
---------------------------------------S-O-S-C-F--------------------------------------
Iteration    Energy (Eh)           Delta-E    RMSDP     MaxDP     MaxGrad    Time(sec)
--------------------------------------------------------------------------------------
    6    -192.8942579283914540    -3.80e-04  5.05e-04  4.47e-03  1.67e-03     0.2
               *** Restarting incremental Fock matrix formation ***
    7    -192.8942637894745928    -5.86e-06  3.67e-04  3.29e-03  3.46e-04     0.2
    8    -192.8942647536618722    -9.64e-07  5.81e-05  5.95e-04  2.91e-04     0.2
    9    -192.8942659610851535    -1.21e-06  5.54e-05  5.10e-04  8.85e-05     0.2
   10    -192.8942658852071474     7.59e-08  2.32e-05  1.84e-04  1.56e-04     0.2
   11    -192.8942659985505372    -1.13e-07  6.32e-06  5.83e-05  4.33e-06     0.2
   12    -192.8942659988227604    -2.72e-10  1.88e-06  1.56e-05  4.25e-06     0.2
                 **** Energy Check signals convergence ****

               *****************************************************
               *                     SUCCESS                       *
               *           SCF CONVERGED AFTER  12 CYCLES          *
               *****************************************************

Recomputing exchange energy using gridx3       ... done (    0.297 sec)
Old exchange energy                            :     -5.169568073 Eh
New exchange energy                            :     -5.169593344 Eh
Exchange energy change after final integration :     -0.000025272 Eh
Total energy after final integration           :   -192.894291272 Eh
             **** ENERGY FILE WAS UPDATED (acetone-opt.en.tmp) ****

----------------
TOTAL SCF ENERGY
----------------

Total Energy       :       -192.89429127150692 Eh           -5248.92052 eV

Components:
Nuclear Repulsion  :        119.33884910253281 Eh            3247.37518 eV
Electronic Energy  :       -312.23311510210624 Eh           -8496.29501 eV
One Electron Energy:       -497.03585557270355 Eh          -13525.03323 eV
Two Electron Energy:        184.80274047059729 Eh            5028.73822 eV

Virial components:
Potential Energy   :       -383.94591268334295 Eh          -10447.69943 eV
Kinetic Energy     :        191.05162141183601 Eh            5198.77892 eV
Virial Ratio       :          2.00964487946270

DFT components:
N(Alpha)           :       16.000006803976 electrons
N(Beta)            :       16.000006803976 electrons
N(Total)           :       32.000013607953 electrons
E(X)               :      -20.530153848409 Eh       
E(C)               :       -1.247258978176 Eh       
E(XC)              :      -21.777412826585 Eh       

---------------
SCF CONVERGENCE
---------------

  Last Energy change         ...    2.7222e-10  Tolerance :   1.0000e-08
  Last MAX-Density change    ...    1.5568e-05  Tolerance :   1.0000e-07
  Last RMS-Density change    ...    1.8808e-06  Tolerance :   5.0000e-09
  Last DIIS Error            ...    1.6725e-03  Tolerance :   5.0000e-07
  Last Orbital Gradient      ...    4.2452e-06  Tolerance :   1.0000e-05
  Last Orbital Rotation      ...    4.5529e-06  Tolerance :   1.0000e-05


----------------
ORBITAL ENERGIES
----------------

  NO   OCC          E(Eh)            E(eV) 
   0   2.0000     -19.115932      -520.1710 
   1   2.0000     -10.270459      -279.4734 
   2   2.0000     -10.189949      -277.2826 
   3   2.0000     -10.189929      -277.2821 
   4   2.0000      -1.014176       -27.5971 
   5   2.0000      -0.764629       -20.8066 
   6   2.0000      -0.704843       -19.1797 
   7   2.0000      -0.524424       -14.2703 
   8   2.0000      -0.464579       -12.6418 
   9   2.0000      -0.455724       -12.4009 
  10   2.0000      -0.445634       -12.1263 
  11   2.0000      -0.409868       -11.1531 
  12   2.0000      -0.388107       -10.5609 
  13   2.0000      -0.376637       -10.2488 
  14   2.0000      -0.344439        -9.3727 
  15   2.0000      -0.244974        -6.6661 
  16   0.0000      -0.015583        -0.4240 
  17   0.0000       0.050488         1.3738 
  18   0.0000       0.107243         2.9182 
  19   0.0000       0.113497         3.0884 
  20   0.0000       0.119043         3.2393 
  21   0.0000       0.147819         4.0224 
  22   0.0000       0.151364         4.1188 
  23   0.0000       0.194654         5.2968 
  24   0.0000       0.271817         7.3965 
  25   0.0000       0.277425         7.5491 
  26   0.0000       0.395288        10.7563 
*Only the first 10 virtual orbitals were printed.

                    ********************************
                    * MULLIKEN POPULATION ANALYSIS *
                    ********************************

-----------------------
MULLIKEN ATOMIC CHARGES
-----------------------
   0 C :    0.045617
   1 C :   -0.050100
   2 O :   -0.217240
   3 C :    0.045538
   4 H :    0.028057
   5 H :    0.030089
   6 H :    0.030012
   7 H :    0.029994
   8 H :    0.028071
   9 H :    0.029962
Sum of atomic charges:    0.0000000

--------------------------------
MULLIKEN REDUCED ORBITAL CHARGES
--------------------------------
  0 C s       :     2.945368  s :     2.945368
      pz      :     1.007642  p :     2.983532
      px      :     0.982154
      py      :     0.993736
      dz2     :     0.002668  d :     0.025483
      dxz     :     0.006845
      dyz     :     0.006243
      dx2y2   :     0.006932
      dxy     :     0.002796

  1 C s       :     3.197267  s :     3.197267
      pz      :     0.911907  p :     2.758948
      px      :     1.045597
      py      :     0.801444
      dz2     :     0.023157  d :     0.093885
      dxz     :     0.037960
      dyz     :     0.018285
      dx2y2   :     0.007324
      dxy     :     0.007159

  2 O s       :     3.762211  s :     3.762211
      pz      :     1.330744  p :     4.437874
      px      :     1.786314
      py      :     1.320816
      dz2     :     0.007321  d :     0.017155
      dxz     :     0.003613
      dyz     :     0.005448
      dx2y2   :     0.000424
      dxy     :     0.000349

  3 C s       :     2.945494  s :     2.945494
      pz      :     1.002956  p :     2.983485
      px      :     0.991825
      py      :     0.988704
      dz2     :     0.002528  d :     0.025483
      dxz     :     0.007263
      dyz     :     0.006131
      dx2y2   :     0.006897
      dxy     :     0.002664

  4 H s       :     0.949009  s :     0.949009
      pz      :     0.008931  p :     0.022933
      px      :     0.008282
      py      :     0.005721

  5 H s       :     0.945439  s :     0.945439
      pz      :     0.010757  p :     0.024472
      px      :     0.004607
      py      :     0.009109

  6 H s       :     0.945514  s :     0.945514
      pz      :     0.006350  p :     0.024474
      px      :     0.005521
      py      :     0.012602

  7 H s       :     0.945533  s :     0.945533
      pz      :     0.006353  p :     0.024473
      px      :     0.004893
      py      :     0.013227

  8 H s       :     0.948993  s :     0.948993
      pz      :     0.007811  p :     0.022935
      px      :     0.010597
      py      :     0.004528

  9 H s       :     0.945567  s :     0.945567
      pz      :     0.010839  p :     0.024471
      px      :     0.005046
      py      :     0.008586



                     *******************************
                     * LOEWDIN POPULATION ANALYSIS *
                     *******************************

----------------------
LOEWDIN ATOMIC CHARGES
----------------------
   0 C :   -0.073762
   1 C :    0.082987
   2 O :   -0.165257
   3 C :   -0.073763
   4 H :    0.036033
   5 H :    0.039437
   6 H :    0.039426
   7 H :    0.039427
   8 H :    0.036044
   9 H :    0.039428

-------------------------------
LOEWDIN REDUCED ORBITAL CHARGES
-------------------------------
  0 C s       :     2.844469  s :     2.844469
      pz      :     1.065715  p :     3.160467
      px      :     1.037779
      py      :     1.056972
      dz2     :     0.006647  d :     0.068826
      dxz     :     0.019320
      dyz     :     0.016269
      dx2y2   :     0.019211
      dxy     :     0.007380

  1 C s       :     2.887742  s :     2.887742
      pz      :     1.004358  p :     2.821034
      px      :     1.034022
      py      :     0.782655
      dz2     :     0.053368  d :     0.208237
      dxz     :     0.090732
      dyz     :     0.035236
      dx2y2   :     0.014876
      dxy     :     0.014025

  2 O s       :     3.562424  s :     3.562424
      pz      :     1.452048  p :     4.573406
      px      :     1.791962
      py      :     1.329396
      dz2     :     0.014385  d :     0.029427
      dxz     :     0.006163
      dyz     :     0.007817
      dx2y2   :     0.000549
      dxy     :     0.000513

  3 C s       :     2.844455  s :     2.844455
      pz      :     1.062190  p :     3.160484
      px      :     1.045085
      py      :     1.053209
      dz2     :     0.006349  d :     0.068824
      dxz     :     0.020463
      dyz     :     0.016187
      dx2y2   :     0.018970
      dxy     :     0.006855

  4 H s       :     0.897918  s :     0.897918
      pz      :     0.024331  p :     0.066049
      px      :     0.026713
      py      :     0.015005

  5 H s       :     0.893198  s :     0.893198
      pz      :     0.029861  p :     0.067365
      px      :     0.013485
      py      :     0.024019

  6 H s       :     0.893209  s :     0.893209
      pz      :     0.016466  p :     0.067364
      px      :     0.015734
      py      :     0.035165

  7 H s       :     0.893211  s :     0.893211
      pz      :     0.016730  p :     0.067363
      px      :     0.013919
      py      :     0.036714

  8 H s       :     0.897908  s :     0.897908
      pz      :     0.021204  p :     0.066049
      px      :     0.033157
      py      :     0.011688

  9 H s       :     0.893210  s :     0.893210
      pz      :     0.030286  p :     0.067362
      px      :     0.013868
      py      :     0.023207



                      *****************************
                      * MAYER POPULATION ANALYSIS *
                      *****************************

  NA   - Mulliken gross atomic population
  ZA   - Total nuclear charge
  QA   - Mulliken gross atomic charge
  VA   - Mayer's total valence
  BVA  - Mayer's bonded valence
  FA   - Mayer's free valence

  ATOM       NA         ZA         QA         VA         BVA        FA
  0 C      5.9544     6.0000     0.0456     3.8279     3.8279    -0.0000
  1 C      6.0501     6.0000    -0.0501     4.3161     4.3161     0.0000
  2 O      8.2172     8.0000    -0.2172     2.2464     2.2464     0.0000
  3 C      5.9545     6.0000     0.0455     3.8276     3.8276     0.0000
  4 H      0.9719     1.0000     0.0281     1.0200     1.0200    -0.0000
  5 H      0.9699     1.0000     0.0301     0.9964     0.9964    -0.0000
  6 H      0.9700     1.0000     0.0300     0.9964     0.9964    -0.0000
  7 H      0.9700     1.0000     0.0300     0.9965     0.9965     0.0000
  8 H      0.9719     1.0000     0.0281     1.0201     1.0201     0.0000
  9 H      0.9700     1.0000     0.0300     0.9965     0.9965     0.0000

  Mayer bond orders larger than 0.100000
B(  0-C ,  1-C ) :   1.0127 B(  0-C ,  4-H ) :   0.9541 B(  0-C ,  5-H ) :   0.9508 
B(  0-C ,  6-H ) :   0.9508 B(  1-C ,  2-O ) :   2.1600 B(  1-C ,  3-C ) :   1.0123 
B(  3-C ,  7-H ) :   0.9509 B(  3-C ,  8-H ) :   0.9541 B(  3-C ,  9-H ) :   0.9508 


-------
TIMINGS
-------

Total SCF time: 0 days 0 hours 0 min 2 sec 

Total time                  ....       2.880 sec
Sum of individual times     ....       2.653 sec  ( 92.1%)

SCF preparation             ....       0.100 sec  (  3.5%)
Fock matrix formation       ....       2.444 sec  ( 84.9%)
  Startup                   ....       0.003 sec  (  0.1% of F)
  Split-RI-J                ....       0.307 sec  ( 12.6% of F)
  Chain of spheres X        ....       1.711 sec  ( 70.0% of F)
  XC integration            ....       0.524 sec  ( 21.5% of F)
    XC Preparation          ....       0.000 sec  (  0.0% of XC)
    Basis function eval.    ....       0.156 sec  ( 29.7% of XC)
    Density eval.           ....       0.071 sec  ( 13.6% of XC)
    XC-Functional eval.     ....       0.035 sec  (  6.7% of XC)
    XC-Potential eval.      ....       0.056 sec  ( 10.7% of XC)
Diagonalization             ....       0.000 sec  (  0.0%)
Density matrix formation    ....       0.015 sec  (  0.5%)
Total Energy calculation    ....       0.009 sec  (  0.3%)
Population analysis         ....       0.007 sec  (  0.3%)
Orbital Transformation      ....       0.009 sec  (  0.3%)
Orbital Orthonormalization  ....       0.000 sec  (  0.0%)
DIIS solution               ....       0.036 sec  (  1.2%)
SOSCF solution              ....       0.032 sec  (  1.1%)
Finished LeanSCF after   2.9 sec

Maximum memory used throughout the entire LEANSCF-calculation: 8.0 MB


           ************************************************************
           *        Program running with 4 parallel MPI-processes     *
           *              working on a common directory               *
           ************************************************************

------------------------------------------------------------------------------
                         ORCA PROPERTY INTEGRAL CALCULATIONS
------------------------------------------------------------------------------

GBWName                                   ... acetone-opt.gbw
Number of atoms                           ...     10
Number of basis functions                 ...     86
Max core memory                           ...   2000 MB

Dipole integrals                          ... YES
Quadrupole integrals                      ...  NO
Linear momentum integrals                 ...  NO
Angular momentum integrals                ...  NO
Higher moments length integrals           ...  NO
Higher moments velocity integrals         ...  NO
Kinetic energy integrals                  ...  NO
GIAO right hand sides                     ...  NO
GIAO dipole derivative integrals          ...  NO
SOC integrals                             ...  NO
EPR diamagnetic integrals (GIAO)          ...  NO
EPR gauge integrals                       ...  NO
Field gradient integrals                  ...  NO (   0 nuclei)
Spin-dipole/Fermi contact integrals       ...  NO (   0 nuclei)
Contact density integrals                 ...  NO (   0 nuclei)
Nucleus-orbit integrals                   ...  NO (   0 nuclei)
Geometric perturbations                   ...  NO (  10 nuclei)

Choice of electric origin   ... Center of mass
Position of electric origin ... (  0.1108,  0.2512, -0.9668) 
Choice of magnetic origin   ... GIAO
Position of magnetic origin ... (  0.0000,  0.0000,  0.0000) 

Calculating integrals                     ... Electric Dipole (Length)     done (  0.0 sec)

Property integrals calculated in   0.0 sec

Maximum memory used throughout the entire PROPINT-calculation: 6.9 MB

-------------------------   --------------------
FINAL SINGLE POINT ENERGY      -192.894291271507
-------------------------   --------------------



           ************************************************************
           *        Program running with 4 parallel MPI-processes     *
           *              working on a common directory               *
           ************************************************************
------------------------------------------------------------------------------
                         ORCA SCF GRADIENT CALCULATION
------------------------------------------------------------------------------

Nuc. rep. gradient        (SHARK) ... done (  0.0 sec)
HCore & Overlap gradient  (SHARK) ... done (  0.0 sec)
Split-RIJ-J gradient      (SHARK) ... done (  0.1 sec)
COSX-gradient                     ... done (  1.3 sec)
XC gradient                       ... done (  0.3 sec)

------------------
CARTESIAN GRADIENT
------------------

   1   C   :    0.001667903   -0.002482885    0.007430627
   2   C   :   -0.003966421   -0.008989557    0.034702444
   3   O   :    0.002962544    0.006695732   -0.025764478
   4   C   :   -0.003379505   -0.001344381    0.007132696
   5   H   :    0.001908490   -0.001171916    0.002721712
   6   H   :    0.000998262   -0.000959141   -0.007889476
   7   H   :    0.002140081    0.004352606   -0.006377004
   8   H   :    0.000636325    0.004690816   -0.006477320
   9   H   :   -0.002515871   -0.000169762    0.002477551
  10   H   :   -0.000451808   -0.000621512   -0.007956752

Difference to translation invariance:
           :    0.0000000000    0.0000000000   -0.0000000001

Difference to rotation invariance:
           :    0.0001017539    0.0000429411   -0.0000437947

Norm of the Cartesian gradient     ...    0.0492749741
RMS gradient                       ...    0.0089963383
MAX gradient                       ...    0.0347024441

-------
TIMINGS
-------

Total SCF gradient time     ....        1.687 sec

Densities                   ....       0.000 sec  (  0.0%)
One electron gradient       ....       0.026 sec  (  1.6%)
RI-J Coulomb gradient       ....       0.078 sec  (  4.6%)
COSX gradient               ....       1.284 sec  ( 76.1%)
XC gradient                 ....       0.298 sec  ( 17.7%)

Maximum memory used throughout the entire SCFGRAD-calculation: 10.4 MB
------------------------------------------------------------------------------
                         ORCA GEOMETRY RELAXATION STEP
------------------------------------------------------------------------------

Reading the OPT-File                    .... done
Getting information on internals        .... done
Copying old internal coords+grads       .... done
Making the new internal coordinates     .... (2022 redundants) done
Validating the new internal coordinates .... (2022 redundants) done
Calculating the B-matrix                .... done
Calculating the G,G- and P matrices     .... done
Transforming gradient to internals      .... done
Projecting the internal gradient        .... done
Number of atoms                         ....  10
Number of internal coordinates          ....  34
Current Energy                          ....  -192.894291272 Eh
Current gradient norm                   ....     0.049274974 Eh/bohr
Maximum allowed component of the step   ....  0.300
Current trust radius                    ....  0.300
Evaluating the initial hessian          ....  (Almloef) done
Projecting the Hessian                  .... done
Forming the augmented Hessian           .... done
Diagonalizing the augmented Hessian     .... done
Last element of RFO vector              ....  0.997443504
Lowest eigenvalues of augmented Hessian:
 -0.002029660  0.012441984  0.012442070  0.012442108  0.138268974
Length of the computed step             ....  0.071642627
The final length of the internal step   ....  0.071642627
Converting the step to Cartesian space:
 Initial RMS(Int)=    0.0122866092
Transforming coordinates:
 Iter   0:  RMS(Cart)=    0.0146135995 RMS(Int)=    1.0775218176
done
Storing new coordinates                 .... done

                                .--------------------.
          ----------------------|Geometry convergence|-------------------------
          Item                value                   Tolerance       Converged
          ---------------------------------------------------------------------
          RMS gradient        0.0058160915            0.0001000000      NO
          MAX gradient        0.0267846551            0.0003000000      NO
          RMS step            0.0122866092            0.0020000000      NO
          MAX step            0.0265440171            0.0040000000      NO
          -------------------------------------------------------------------------
          ........................................................
          Max(Bonds)      0.0140      Max(Angles)    1.43
          Max(Dihed)        0.69      Max(Improp)    0.00
          ---------------------------------------------------------------------

The optimization has not yet converged - more geometry cycles are needed


    ---------------------------------------------------------------------------
                         Redundant Internal Coordinates
                            (Angstroem and degrees)

        Definition                    Value    dE/dq     Step     New-Value
    ----------------------------------------------------------------------------
     1. B(C   1,C   0)                1.5048 -0.007858  0.0101    1.5149   
     2. B(O   2,C   1)                1.2301  0.026785 -0.0140    1.2160   
     3. B(C   3,C   1)                1.5048 -0.007875  0.0101    1.5149   
     4. B(H   4,C   0)                1.0935 -0.003455  0.0051    1.0986   
     5. B(H   5,C   0)                1.0928 -0.006601  0.0097    1.1025   
     6. B(H   6,C   0)                1.0928 -0.006602  0.0097    1.1025   
     7. B(H   7,C   3)                1.0928 -0.006606  0.0098    1.1025   
     8. B(H   8,C   3)                1.0935 -0.003468  0.0051    1.0987   
     9. B(H   9,C   3)                1.0928 -0.006580  0.0097    1.1025   
    10. A(H   5,C   0,H   6)          110.21  0.005678   -1.42    108.79   
    11. A(H   4,C   0,H   6)          108.87 -0.000907    0.32    109.19   
    12. A(C   1,C   0,H   4)          109.71  0.000793    0.03    109.74   
    13. A(C   1,C   0,H   5)          109.58 -0.002433    0.38    109.97   
    14. A(C   1,C   0,H   6)          109.58 -0.002726    0.39    109.98   
    15. A(H   4,C   0,H   5)          108.87 -0.000373    0.30    109.17   
    16. A(O   2,C   1,C   3)          121.64  0.000053   -0.01    121.63   
    17. A(C   0,C   1,C   3)          116.73 -0.000131    0.02    116.75   
    18. A(C   0,C   1,O   2)          121.64  0.000078   -0.01    121.63   
    19. A(H   7,C   3,H   9)          110.21  0.005681   -1.43    108.78   
    20. A(C   1,C   3,H   9)          109.58 -0.002675    0.38    109.97   
    21. A(H   7,C   3,H   8)          108.87 -0.000365    0.30    109.17   
    22. A(C   1,C   3,H   8)          109.71  0.000778    0.03    109.74   
    23. A(H   8,C   3,H   9)          108.87 -0.000936    0.32    109.19   
    24. A(C   1,C   3,H   7)          109.58 -0.002451    0.39    109.97   
    25. D(O   2,C   1,C   0,H   5)   -119.48  0.001744   -0.64   -120.11   
    26. D(C   3,C   1,C   0,H   4)   -180.00 -0.000714    0.24   -179.76   
    27. D(O   2,C   1,C   0,H   4)     -0.00  0.000281   -0.01     -0.01   
    28. D(C   3,C   1,C   0,H   5)     60.52  0.000748   -0.39     60.14   
    29. D(O   2,C   1,C   0,H   6)    119.48 -0.002016    0.63    120.11   
    30. D(H   7,C   3,C   1,O   2)   -119.48  0.000745   -0.34   -119.82   
    31. D(H   7,C   3,C   1,C   0)     60.52  0.001740   -0.59     59.93   
    32. D(H   9,C   3,C   1,C   0)    -60.52 -0.002044    0.69    -59.84   
    33. D(H   8,C   3,C   1,O   2)      0.00 -0.000728    0.29      0.29   
    34. D(H   8,C   3,C   1,C   0)    180.00  0.000267    0.04    180.04   
    ----------------------------------------------------------------------------

Geometry step timings:
Preparation and reading OPT file:      0.000 s ( 4.458 %)
Internal coordinates            :      0.000 s ( 1.796 %)
B/P matrices and projection     :      0.000 s (21.610 %)
Hessian update/contruction      :      0.000 s (19.814 %)
Making the step                 :      0.000 s (20.186 %)
Converting the step to Cartesian:      0.000 s ( 5.201 %)
Storing new data                :      0.000 s ( 4.396 %)
Checking convergence            :      0.000 s ( 2.043 %)
Final printing                  :      0.000 s (20.433 %)
Total time                      :      0.002 s

Time for energy+gradient        :      7.062 s
Time for complete geometry iter :      7.420 s

         *************************************************************
         *                GEOMETRY OPTIMIZATION CYCLE   2            *
         *************************************************************
---------------------------------
CARTESIAN COORDINATES (ANGSTROEM)
---------------------------------
  C     -1.273650    0.245597    0.085845
  C      0.070085    0.159631   -0.608269
  O      0.203643    0.461325   -1.778670
  C      1.238111   -0.326091    0.225192
  H     -2.034164    0.604333   -0.621209
  H     -1.213481    0.943091    0.937544
  H     -1.568031   -0.748405    0.461095
  H      1.035552   -1.342581    0.601013
  H      2.149700   -0.343092   -0.387803
  H      1.392235    0.346191    1.085262

----------------------------
CARTESIAN COORDINATES (A.U.)
----------------------------
  NO LB      ZA    FRAG     MASS         X           Y           Z
   0 C     6.0000    0    12.011   -2.406849    0.464110    0.162224
   1 C     6.0000    0    12.011    0.132442    0.301659   -1.149461
   2 O     8.0000    0    15.999    0.384830    0.871778   -3.361199
   3 C     6.0000    0    12.011    2.339691   -0.616223    0.425551
   4 H     1.0000    0     1.008   -3.844014    1.142023   -1.173914
   5 H     1.0000    0     1.008   -2.293147    1.782183    1.771701
   6 H     1.0000    0     1.008   -2.963150   -1.414280    0.871343
   7 H     1.0000    0     1.008    1.956909   -2.537110    1.135749
   8 H     1.0000    0     1.008    4.062344   -0.648349   -0.732842
   9 H     1.0000    0     1.008    2.630944    0.654207    2.050848

--------------------------------
INTERNAL COORDINATES (ANGSTROEM)
--------------------------------
 C      0   0   0     0.000000000000     0.00000000     0.00000000
 C      1   0   0     1.514862157944     0.00000000     0.00000000
 O      2   1   0     1.216016363387   121.62519647     0.00000000
 C      2   1   3     1.514881708427   116.74590413   180.25120214
 H      1   2   3     1.098635212342   109.73554541     0.00000000
 H      1   2   3     1.102500936231   109.96586165   239.88628192
 H      1   2   3     1.102502247983   109.97683610   120.11006255
 H      4   2   1     1.102507352866   109.96852069    59.93150127
 H      4   2   1     1.098656563912   109.73914954   180.03489665
 H      4   2   1     1.102469539102   109.96721157   300.16325999

---------------------------
INTERNAL COORDINATES (A.U.)
---------------------------
 C      0   0   0     0.000000000000     0.00000000     0.00000000
 C      1   0   0     2.862674609154     0.00000000     0.00000000
 O      2   1   0     2.297937901168   121.62519647     0.00000000
 C      2   1   3     2.862711554213   116.74590413   180.25120214
 H      1   2   3     2.076119672409   109.73554541     0.00000000
 H      1   2   3     2.083424831868   109.96586165   239.88628192
 H      1   2   3     2.083427310721   109.97683610   120.11006255
 H      4   2   1     2.083436957552   109.96852069    59.93150127
 H      4   2   1     2.076160021029   109.73914954   180.03489665
 H      4   2   1     2.083365499893   109.96721157   300.16325999



           ************************************************************
           *        Program running with 4 parallel MPI-processes     *
           *              working on a common directory               *
           ************************************************************
------------------------------------------------------------------------------
                   ___                                                        
                  /   \      - P O W E R E D   B Y -                         
                 /     \                                                     
                 |  |  |   _    _      __       _____    __    __             
                 |  |  |  | |  | |    /  \     |  _  \  |  |  /  |          
                  \  \/   | |  | |   /    \    | | | |  |  | /  /          
                 / \  \   | |__| |  /  /\  \   | |_| |  |  |/  /          
                |  |  |   |  __  | /  /__\  \  |    /   |      \           
                |  |  |   | |  | | |   __   |  |    \   |  |\   \          
                \     /   | |  | | |  |  |  |  | |\  \  |  | \   \       
                 \___/    |_|  |_| |__|  |__|  |_| \__\ |__|  \__/        
                                                                              
                      - O R C A' S   B I G   F R I E N D -                    
                                      &                                       
                       - I N T E G R A L  F E E D E R -                       
                                                                              
 v1 FN, 2020, v2 2021, v3 2022-2024                                           
------------------------------------------------------------------------------


----------------------
SHARK INTEGRAL PACKAGE
----------------------

Number of atoms                             ...     10
Number of basis functions                   ...     86
Number of shells                            ...     42
Maximum angular momentum                    ...      2
Integral batch strategy                     ... SHARK/LIBINT Hybrid
RI-J (if used) integral strategy            ... SPLIT-RIJ (Revised 2003 algorithm where possible)
Printlevel                                  ...      1
Contraction scheme used                     ... SEGMENTED contraction
Prescreening option                         ... SCHWARTZ
   Thresh                                   ... 2.500e-11
   Tcut                                     ... 2.500e-12
   Tpresel                                  ... 2.500e-12 
Coulomb Range Separation                    ... NOT USED
Exchange Range Separation                   ... NOT USED
Multipole approximations                    ... NOT USED
Finite Nucleus Model                        ... NOT USED
CABS basis                                  ... NOT available
Auxiliary Coulomb fitting basis             ... AVAILABLE
   # of basis functions in Aux-J            ...    262
   # of shells in Aux-J                     ...     90
   Maximum angular momentum in Aux-J        ...      4
Auxiliary J/K fitting basis                 ... NOT available
Auxiliary Correlation fitting basis         ... NOT available
Auxiliary 'external' fitting basis          ... NOT available

Checking pre-screening integrals            ... done (  0.0 sec) Dimension = 42
   => SHARK Basis and OBASIS are compatible. Storing Pre-screening
Shell pair information
Shell pair cut-off parameter TPreSel        ...   2.5e-12
Total number of shell pairs                 ...       903
Shell pairs after pre-screening             ...       898
Total number of primitive shell pairs       ...      3151
Primitive shell pairs kept                  ...      2591
          la=0 lb=0:    297 shell pairs
          la=1 lb=0:    334 shell pairs
          la=1 lb=1:    105 shell pairs
          la=2 lb=0:     96 shell pairs
          la=2 lb=1:     56 shell pairs
          la=2 lb=2:     10 shell pairs

Checking whether 4 symmetric matrices of dimension 86 fit in memory
:Max Core in MB      =   2000.00
 MB in use           =      4.48
 MB left             =   1995.52
 MB needed           =      0.11
 Data fit in memory  = YES
Calculating RI/J V-Matrix + Cholesky decomp.... done (  0.0 sec)
Calculating Nuclear repulsion               ... done (  0.0 sec) ENN=    119.086154435631 Eh

Diagonalization of the overlap matrix:
Smallest eigenvalue                        ... 3.401e-03
Time for diagonalization                   ...    0.001 sec
Threshold for overlap eigenvalues          ... 1.000e-07
Number of eigenvalues below threshold      ... 0
Time for construction of square roots      ...    0.000 sec
Total time needed                          ...    0.003 sec

-------------------
DFT GRID GENERATION
-------------------

General Integration Accuracy     IntAcc      ... 4.388
Radial Grid Type                 RadialGrid  ... OptM3 with GC (2021)
Angular Grid (max. ang.)         AngularGrid ... 4 (Lebedev-302)
Angular grid pruning method      GridPruning ... 4 (adaptive)
Weight generation scheme         WeightScheme... mBecke (2022)
Basis function cutoff            BFCut       ... 1.0000e-11
Integration weight cutoff        WCut        ... 1.0000e-14
Partially contracted basis set               ... off
Rotationally invariant grid construction     ... off
Angular grids for H and He will be reduced by one unit

Total number of grid points                  ...    43771
Total number of batches                      ...      689
Average number of points per batch           ...       63
Average number of grid points per atom       ...     4377

--------------------
COSX GRID GENERATION
--------------------

GRIDX 1
-------
General Integration Accuracy     IntAcc      ... 3.816
Radial Grid Type                 RadialGrid  ... OptM3 with GC (2021)
Angular Grid (max. ang.)         AngularGrid ... 1 (Lebedev-50)
Angular grid pruning method      GridPruning ... 4 (adaptive)
Weight generation scheme         WeightScheme... mBecke (2022)
Basis function cutoff            BFCut       ... 1.0000e-11
Integration weight cutoff        WCut        ... 1.0000e-14
Partially contracted basis set               ... on
Rotationally invariant grid construction     ... off
Angular grids for H and He will be reduced by one unit

Total number of grid points                  ...     5642
Total number of batches                      ...       51
Average number of points per batch           ...      110
Average number of grid points per atom       ...      564
UseSFitting                                  ... on

GRIDX 2
-------
General Integration Accuracy     IntAcc      ... 4.020
Radial Grid Type                 RadialGrid  ... OptM3 with GC (2021)
Angular Grid (max. ang.)         AngularGrid ... 2 (Lebedev-110)
Angular grid pruning method      GridPruning ... 4 (adaptive)
Weight generation scheme         WeightScheme... mBecke (2022)
Basis function cutoff            BFCut       ... 1.0000e-11
Integration weight cutoff        WCut        ... 1.0000e-14
Partially contracted basis set               ... on
Rotationally invariant grid construction     ... off
Angular grids for H and He will be reduced by one unit

Total number of grid points                  ...    12029
Total number of batches                      ...       98
Average number of points per batch           ...      122
Average number of grid points per atom       ...     1203
UseSFitting                                  ... on

GRIDX 3
-------
General Integration Accuracy     IntAcc      ... 4.338
Radial Grid Type                 RadialGrid  ... OptM3 with GC (2021)
Angular Grid (max. ang.)         AngularGrid ... 3 (Lebedev-194)
Angular grid pruning method      GridPruning ... 4 (adaptive)
Weight generation scheme         WeightScheme... mBecke (2022)
Basis function cutoff            BFCut       ... 1.0000e-11
Integration weight cutoff        WCut        ... 1.0000e-14
Partially contracted basis set               ... on
Rotationally invariant grid construction     ... off
Angular grids for H and He will be reduced by one unit

Total number of grid points                  ...    26460
Total number of batches                      ...      213
Average number of points per batch           ...      124
Average number of grid points per atom       ...     2646
UseSFitting                                  ... on
Grids setup in   0.3 sec
Initializing property integral containers    ... done (  0.0 sec)

SHARK setup successfully completed in   0.3 seconds

Maximum memory used throughout the entire STARTUP-calculation: 13.9 MB


           ************************************************************
           *        Program running with 4 parallel MPI-processes     *
           *              working on a common directory               *
           ************************************************************
Occupation numbers will be reassigned to an Aufbau configuration
             **** ENERGY FILE WAS UPDATED (acetone-opt.en.tmp) ****
Finished Guess after   0.1 sec
Maximum memory used throughout the entire GUESS-calculation: 6.8 MB


           ************************************************************
           *        Program running with 4 parallel MPI-processes     *
           *              working on a common directory               *
           ************************************************************
----------------------------------------D-I-I-S--------------------------------------------
Iteration    Energy (Eh)           Delta-E    RMSDP     MaxDP     DIISErr   Damp  Time(sec)
-------------------------------------------------------------------------------------------
               ***  Starting incremental Fock matrix formation  ***
    1    -192.8952785858070627     0.00e+00  4.09e-04  2.53e-03  7.54e-03  0.700   0.3
    2    -192.8953690228762810    -9.04e-05  3.22e-04  2.13e-03  4.34e-03  0.700   0.2
                               ***Turning on AO-DIIS***
                              *** Initializing SOSCF ***
---------------------------------------S-O-S-C-F--------------------------------------
Iteration    Energy (Eh)           Delta-E    RMSDP     MaxDP     MaxGrad    Time(sec)
--------------------------------------------------------------------------------------
    3    -192.8954298552340276    -6.08e-05  7.33e-04  5.53e-03  2.44e-03     0.2
               *** Restarting incremental Fock matrix formation ***
    4    -192.8955724763399928    -1.43e-04  4.03e-04  3.84e-03  9.59e-04     0.2
    5    -192.8955519360200412     2.05e-05  3.03e-04  2.64e-03  2.33e-03     0.2
    6    -192.8955785279868849    -2.66e-05  1.88e-05  2.17e-04  3.99e-05     0.2
    7    -192.8955785283942816    -4.07e-10  9.80e-06  1.11e-04  4.36e-05     0.2
                 **** Energy Check signals convergence ****

               *****************************************************
               *                     SUCCESS                       *
               *           SCF CONVERGED AFTER   7 CYCLES          *
               *****************************************************

Recomputing exchange energy using gridx3       ... done (    0.310 sec)
Old exchange energy                            :     -5.166671039 Eh
New exchange energy                            :     -5.166697738 Eh
Exchange energy change after final integration :     -0.000026700 Eh
Total energy after final integration           :   -192.895605261 Eh
             **** ENERGY FILE WAS UPDATED (acetone-opt.en.tmp) ****

----------------
TOTAL SCF ENERGY
----------------

Total Energy       :       -192.89560526099652 Eh           -5248.95627 eV

Components:
Nuclear Repulsion  :        119.08615443563119 Eh            3240.49901 eV
Electronic Energy  :       -311.98173299689250 Eh           -8489.45455 eV
One Electron Energy:       -496.53389894670147 Eh          -13511.37430 eV
Two Electron Energy:        184.55216594980897 Eh            5021.91974 eV

Virial components:
Potential Energy   :       -383.90254522469047 Eh          -10446.51935 eV
Kinetic Energy     :        191.00693996369398 Eh            5197.56308 eV
Virial Ratio       :          2.00988794070865

DFT components:
N(Alpha)           :       16.000003174606 electrons
N(Beta)            :       16.000003174606 electrons
N(Total)           :       32.000006349212 electrons
E(X)               :      -20.519193042208 Eh       
E(C)               :       -1.246409026235 Eh       
E(XC)              :      -21.765602068442 Eh       

---------------
SCF CONVERGENCE
---------------

  Last Energy change         ...    4.0740e-10  Tolerance :   1.0000e-08
  Last MAX-Density change    ...    1.1146e-04  Tolerance :   1.0000e-07
  Last RMS-Density change    ...    9.7974e-06  Tolerance :   5.0000e-09
[...]
      0       0.128138  -0.022671  -0.032412  -0.010083  -0.006820   0.010339
      1      -0.013309   0.011973   0.014364  -0.041205  -0.031898   0.009486
      2      -0.048859  -0.025176  -0.020386  -0.012612  -0.008839  -0.041373
      3      -0.114859  -0.020471  -0.001345  -0.000382  -0.006031  -0.081099
      4       0.025951   0.004471  -0.003086   0.000199  -0.030418  -0.183572
      5      -0.006369  -0.001155   0.011930   0.000532  -0.008591   0.709899
      6       0.014546   0.006193   0.003280   0.000175   0.000369   0.053082
      7      -0.003309  -0.001357   0.007433   0.000253   0.001994   0.120137
      8       0.000848   0.000296  -0.028805  -0.001126   0.000608  -0.464407
      9       0.114386  -0.028034   0.036760   0.010748  -0.007068  -0.000836
     10      -0.041938  -0.000604  -0.004659   0.041779  -0.031057   0.011980
     11       0.061421   0.022320  -0.017545   0.011686  -0.009212  -0.042045
     12      -0.169329   0.198044   0.201269   0.112123   0.101043  -0.167716
     13      -0.036067   0.026420   0.010729   0.490063   0.479419  -0.014175
     14       0.255463  -0.245101  -0.262342   0.127011   0.135528   0.176259
     15      -0.419912   0.013160   0.055574  -0.276416  -0.307294   0.099628
     16      -0.106603  -0.355806  -0.351933   0.122550   0.133256   0.080898
     17       0.071469   0.270961   0.270900  -0.110701  -0.107871  -0.092615
     18      -0.353246   0.116914   0.132937   0.300448   0.320985   0.071127
     19       0.205384   0.136639   0.121945  -0.054216  -0.066948  -0.054236
     20       0.159140   0.409106   0.392236   0.159793   0.124322  -0.130777
     21      -0.385728   0.089621  -0.134085   0.303168  -0.324143  -0.072212
     22      -0.035091  -0.180472   0.181103  -0.069928   0.078757  -0.021020
     23      -0.196917  -0.397729   0.390084  -0.097069   0.087369  -0.138451
     24      -0.106189   0.139242  -0.139534  -0.109279   0.099444   0.125475
     25       0.103020  -0.104117   0.131407  -0.489979   0.471291  -0.081225
     26      -0.265928   0.262402  -0.270468  -0.154236   0.137760   0.192309
     27      -0.317687   0.192840  -0.203989  -0.336192   0.341464  -0.045716
     28       0.270955   0.310129  -0.290109  -0.011723  -0.014816   0.114540
     29      -0.110479  -0.256535   0.246614   0.097772  -0.069299  -0.100584
                 24         25         26         27         28         29    
      0       0.025735  -0.025353  -0.013369   0.012723   0.036713  -0.029926
      1       0.002009  -0.001768  -0.062734   0.059882  -0.024209   0.019673
      2      -0.026730   0.025521  -0.017712   0.016896   0.058006  -0.047212
      3      -0.002412  -0.000013  -0.000013   0.000109   0.000248   0.000387
      4       0.000543   0.000051  -0.000007   0.000589  -0.000146   0.000807
      5      -0.000134  -0.000183  -0.000015   0.000155   0.000343  -0.003135
      6       0.000186   0.000083  -0.000002   0.000066  -0.000268  -0.000181
      7      -0.000044   0.000184  -0.000007   0.000313   0.000098  -0.000345
      8       0.000022  -0.000715   0.000000   0.000091  -0.000156   0.001344
      9       0.018748   0.019870   0.012683   0.013354   0.040181   0.049500
     10      -0.012257  -0.012719   0.059740   0.062713   0.003860   0.004711
     11       0.028114   0.028701   0.017172   0.018008  -0.043304  -0.053295
     12      -0.205065   0.205467  -0.001491   0.001439  -0.487893   0.394213
     13       0.099445  -0.098833  -0.011456   0.009172   0.230838  -0.186485
     14      -0.198962   0.196451  -0.002323   0.002079  -0.452874   0.365820
     15       0.030670  -0.030691   0.028013  -0.026915  -0.010709   0.008376
     16       0.289957  -0.278714   0.309723  -0.295440  -0.144319   0.121195
     17       0.356337  -0.343026   0.403296  -0.384703  -0.169865   0.142726
     18      -0.118632   0.113050   0.133846  -0.127392   0.062912  -0.053266
     19      -0.415139   0.399985   0.454359  -0.433077   0.202908  -0.169626
     20       0.157285  -0.151594  -0.188474   0.179635  -0.073079   0.061268
     21       0.085931   0.089539  -0.090123  -0.094715  -0.030855  -0.038367
     22       0.411325   0.422261  -0.441472  -0.463009  -0.167675  -0.212548
     23      -0.152101  -0.156290   0.178576   0.187251   0.058602   0.074473
     24      -0.240958  -0.256754  -0.000549  -0.001350  -0.476024  -0.581709
     25       0.001755   0.002583   0.010608   0.009463   0.007589   0.009306
     26       0.168466   0.177029   0.004909   0.004962   0.318980   0.389699
     27      -0.056203  -0.056432  -0.061333  -0.064139   0.027625   0.035786
     28      -0.270996  -0.278181  -0.285895  -0.299904   0.113310   0.143459
     29      -0.346267  -0.355134  -0.389390  -0.408408   0.141429   0.179642


-----------
IR SPECTRUM
-----------

 Mode   freq       eps      Int      T**2         TX        TY        TZ
       cm**-1   L/(mol*cm) km/mol    a.u.
----------------------------------------------------------------------------
  6:     34.13   0.000000    0.00  0.000000  ( 0.000230 -0.000002 -0.000014)
  7:    138.15   0.000042    0.21  0.000095  (-0.001860 -0.009171 -0.002748)
  8:    380.94   0.000212    1.07  0.000173  (-0.001397 -0.003281  0.012674)
  9:    488.54   0.000047    0.24  0.000030  (-0.001032 -0.005178 -0.001427)
 10:    537.95   0.002935   14.83  0.001702  ( 0.040181 -0.009108  0.002223)
 11:    789.70   0.000282    1.42  0.000111  ( 0.001147  0.002669 -0.010142)
 12:    866.10   0.000002    0.01  0.000001  ( 0.000730 -0.000180  0.000075)
 13:    877.71   0.001348    6.81  0.000479  ( 0.021302 -0.004899  0.001176)
 14:   1070.20   0.000000    0.00  0.000000  ( 0.000041  0.000049 -0.000052)
 15:   1103.70   0.000841    4.25  0.000238  (-0.003025 -0.014565 -0.004067)
 16:   1225.92   0.012920   65.29  0.003289  ( 0.055823 -0.012766  0.003109)
 17:   1360.68   0.003504   17.71  0.000804  (-0.002865 -0.007197  0.027269)
 18:   1371.82   0.014456   73.05  0.003288  (-0.055823  0.012810 -0.002857)
 19:   1426.45   0.000190    0.96  0.000042  ( 0.006280 -0.001414  0.000406)
 20:   1437.23   0.004182   21.13  0.000908  (-0.003321 -0.007455  0.029007)
 21:   1438.88   0.000006    0.03  0.000001  (-0.000275 -0.000459  0.001023)
 22:   1459.81   0.003906   19.74  0.000835  ( 0.005894  0.027214  0.007716)
 23:   1836.58   0.034158  172.62  0.005804  (-0.008374 -0.018947  0.073313)
 24:   3024.47   0.000234    1.18  0.000024  ( 0.004796 -0.001064  0.000096)
 25:   3030.78   0.000830    4.20  0.000086  (-0.000961 -0.002329  0.008897)
 26:   3097.60   0.000002    0.01  0.000000  (-0.000086 -0.000422 -0.000064)
 27:   3104.27   0.002868   14.49  0.000288  ( 0.003377  0.015995  0.004587)
 28:   3155.29   0.001436    7.25  0.000142  ( 0.011451 -0.002869  0.001617)
 29:   3155.85   0.000993    5.02  0.000098  ( 0.002288  0.002163 -0.009395)

* The epsilon (eps) is given for a Dirac delta lineshape.
** The dipole moment derivative (T) already includes vibrational overlap.

The first frequency considered to be a vibration is 6
The total number of vibrations considered is 24


--------------------------
THERMOCHEMISTRY AT 298.15K
--------------------------

Temperature         ...   298.15 K
Pressure            ...     1.00 atm
Total Mass          ...    58.08 AMU
Quasi RRHO          ...     True
Cut-Off Frequency   ...     1.00 cm^-1

Throughout the following assumptions are being made:
  (1) The electronic state is orbitally nondegenerate
  (2) There are no thermally accessible electronically excited states
  (3) Hindered rotations indicated by low frequency modes are not
      treated as such but are treated as vibrations and this may
      cause some error
  (4) All equations used are the standard statistical mechanics
      equations for an ideal gas
  (5) All vibrations are strictly harmonic

freq.      34.13  E(vib)   ...       0.55 
freq.     138.15  E(vib)   ...       0.42 
freq.     380.94  E(vib)   ...       0.21 
freq.     488.54  E(vib)   ...       0.15 
freq.     537.95  E(vib)   ...       0.12 
freq.     789.70  E(vib)   ...       0.05 
freq.     866.10  E(vib)   ...       0.04 
freq.     877.71  E(vib)   ...       0.04 
freq.    1070.20  E(vib)   ...       0.02 
freq.    1103.70  E(vib)   ...       0.02 
freq.    1225.92  E(vib)   ...       0.01 
freq.    1360.68  E(vib)   ...       0.01 
freq.    1371.82  E(vib)   ...       0.01 
freq.    1426.45  E(vib)   ...       0.00 
freq.    1437.23  E(vib)   ...       0.00 
freq.    1438.88  E(vib)   ...       0.00 
freq.    1459.81  E(vib)   ...       0.00 
freq.    1836.58  E(vib)   ...       0.00 
freq.    3024.47  E(vib)   ...       0.00 
freq.    3030.78  E(vib)   ...       0.00 
freq.    3097.60  E(vib)   ...       0.00 
freq.    3104.27  E(vib)   ...       0.00 
freq.    3155.29  E(vib)   ...       0.00 
freq.    3155.85  E(vib)   ...       0.00 

------------
INNER ENERGY
------------

The inner energy is: U= E(el) + E(ZPE) + E(vib) + E(rot) + E(trans)
    E(el)   - is the total energy from the electronic structure calculation
              = E(kin-el) + E(nuc-el) + E(el-el) + E(nuc-nuc)
    E(ZPE)  - the the zero temperature vibrational energy from the frequency calculation
    E(vib)  - the the finite temperature correction to E(ZPE) due to population
              of excited vibrational states
    E(rot)  - is the rotational thermal energy
    E(trans)- is the translational thermal energy

Summary of contributions to the inner energy U:
Electronic energy                ...   -192.89587236 Eh
Zero point energy                ...      0.08295438 Eh      52.05 kcal/mol
Thermal vibrational correction   ...      0.00260413 Eh       1.63 kcal/mol
Thermal rotational correction    ...      0.00141627 Eh       0.89 kcal/mol
Thermal translational correction ...      0.00141627 Eh       0.89 kcal/mol
-----------------------------------------------------------------------
Total thermal energy                   -192.80748131 Eh


Summary of corrections to the electronic energy:
(perhaps to be used in another calculation)
Total thermal correction                  0.00543667 Eh       3.41 kcal/mol
Non-thermal (ZPE) correction              0.08295438 Eh      52.05 kcal/mol
-----------------------------------------------------------------------
Total correction                          0.08839105 Eh      55.47 kcal/mol


--------
ENTHALPY
--------

The enthalpy is H = U + kB*T
                kB is Boltzmann's constant
Total thermal energy              ...   -192.80748131 Eh 
Thermal Enthalpy correction       ...      0.00094421 Eh       0.59 kcal/mol
-----------------------------------------------------------------------
Total Enthalpy                    ...   -192.80653710 Eh


Note: Only C1 symmetry has been detected, increase convergence thresholds 
      if your molecule has a higher symmetry. Symmetry factor of 1.0 is   
      used for the rotational entropy correction. 
 

Note: Rotational entropy computed according to Herzberg 
Infrared and Raman Spectra, Chapter V,1, Van Nostrand Reinhold, 1945 
Point Group:  C1, Symmetry Number:   1  
Rotational constants in cm-1:     0.337087     0.281835     0.162884 

Vibrational entropy computed according to the QRRHO of S. Grimme
Chem.Eur.J. 2012 18 9955 using a reference frequency of 100.0 cm-1


-------
ENTROPY
-------

The entropy contributions are T*S = T*(S(el)+S(vib)+S(rot)+S(trans))
     S(el)   - electronic entropy
     S(vib)  - vibrational entropy
     S(rot)  - rotational entropy
     S(trans)- translational entropy
The entropies will be listed as multiplied by the temperature to get
units of energy

Electronic entropy                ...      0.00000000 Eh      0.00 kcal/mol
Vibrational entropy               ...      0.00465776 Eh      2.92 kcal/mol
Rotational entropy                ...      0.01147875 Eh      7.20 kcal/mol
Translational entropy             ...      0.01810171 Eh     11.36 kcal/mol
-----------------------------------------------------------------------
Final entropy term                ...      0.03423823 Eh     21.48 kcal/mol

In case the symmetry of your molecule has not been determined correctly
or in case you have a reason to use a different symmetry number we print 
out the resulting rotational entropy values for sn=1,12:

 non-linear molecules -----------------------------------
|  sn= 1 | S(rot)=       0.01147875 Eh      7.20 kcal/mol|
|  sn= 2 | S(rot)=       0.01082429 Eh      6.79 kcal/mol|
|  sn= 3 | S(rot)=       0.01044146 Eh      6.55 kcal/mol|
|  sn= 4 | S(rot)=       0.01016984 Eh      6.38 kcal/mol|
|  sn= 5 | S(rot)=       0.00995915 Eh      6.25 kcal/mol|
|  sn= 6 | S(rot)=       0.00978701 Eh      6.14 kcal/mol|
|  sn= 7 | S(rot)=       0.00964146 Eh      6.05 kcal/mol|
|  sn= 8 | S(rot)=       0.00951538 Eh      5.97 kcal/mol|
|  sn= 9 | S(rot)=       0.00940417 Eh      5.90 kcal/mol|
|  sn=10 | S(rot)=       0.00930469 Eh      5.84 kcal/mol|
|  sn=11 | S(rot)=       0.00921470 Eh      5.78 kcal/mol|
|  sn=12 | S(rot)=       0.00913255 Eh      5.73 kcal/mol|
 linear molecules ---------------------------------------
|  Dinfh | S(rot)=       0.00703923 Eh      4.42 kcal/mol|
|  Cinfv | S(rot)=       0.00769369 Eh      4.83 kcal/mol|
 --------------------------------------------------------


-------------------
GIBBS FREE ENERGY
-------------------

The Gibbs free energy is G = H - T*S

Total enthalpy                    ...   -192.80653710 Eh 
Total entropy correction          ...     -0.03423823 Eh    -21.48 kcal/mol
-----------------------------------------------------------------------
Final Gibbs free energy         ...   -192.84077533 Eh

For completeness - the Gibbs free energy minus the electronic energy
G-E(el)                           ...      0.05509704 Eh     34.57 kcal/mol


Maximum memory used throughout the entire PROP-calculation: 20.0 MB

--------------------------------
SUGGESTED CITATIONS FOR THIS RUN
--------------------------------

Below you find a list of papers that are relevant to this ORCA run
We neither can nor want to force you to cite these papers, but we appreciate if you do
You receive ORCA, which is the product of decades of hard work by many enthusiastic individuals, for free
The only thing we kindly ask in return is that you cite our papers,
We deeply appreciate it, if you show your appreciation for ORCA by not just citing the generic ORCA reference.

Please note that relegating all ORCA citations to the supporting information does *not* help us.
SI sections are not indexed - citations you put there will not count into any citation statistics
But we need these citations in order to attract the funding resources that allow us to do what we are doing

Therefore, if you are a happy ORCA user, please consider citing a few of the papers listed below in the main body of your paper

In addition to the list printed below, the program has created the file acetone-opt.bibtex that contains the list in bibtex format
You can import this file easily into all common literature databanks and citation aid programs

It goes without saying that in many instances, there are alternative algorithms to achieve similar
results as the ones you have gotten from ORCA. It is, of course, also the case that in some instances
ORCA just re-implements algorithms worked out by others. We are fully aware of that and we are also
fully appreciative of our colleagues work. Hence this citation list should not be read as indicating
that the listed papers, which are focused on our own work, are the only ones worth citing. It simply
meant to make it easier for users to cite ORCA specific papers. It is not a substitute for doing your
own literature research and citing the relevant literature in a scientifically appropriate manner.

List of essential papers. We consider these as the minimum necessary citations

  1. Neese, F.
     Software update: the ORCA program system, version 6.0
     WIRES Comput. Molec. Sci. 2025 15(1), e70019
     doi.org/10.1002/wcms.70019

List of papers to cite with high priority. The work reported in these papers was absolutely
necessary for this run to complete.
Our perspective: the developers of density functionals and basis sets usually get cited in chemistry papers
Good! But without the algorithms to do something with them, the functionals or basis sets would not do anything.
Hence, in our opinion, the algorithm design and method developments papers are equally worthy of getting cited

  1. Neese, F.
     An improvement of the resolution of the identity approximation for the formation of the Coulomb matrix
     J. Comp. Chem. 2003 24(14), 1740-1747
     doi.org/10.1002/jcc.10318
  2. Neese, F.; Wennmohs, F.; Hansen, A.; Becker, U.
     Efficient, approximate and parallel Hartree-Fock and hybrid DFT calculations. A 'chain-of-spheres' algorithm for the Hartree-Fock exchange
     Chem. Phys. 2009 356(1-3), 98-109
     doi.org/10.1016/j.chemphys.2008.10.036
  3. Bykov, D.; Petrenko, T.; Izsak, R.; Kossmann, S.; Becker, U.; Valeev, E.; Neese, F.
     Efficient implementation of the analytic second derivatives of Hartree-Fock and hybrid DFT energies: a detailed analysis of different approximations
     Molec. Phys. 2015 113 , 1961-1977
     doi.org/10.1080/00268976.2015.1025114
  4. Helmich-Paris, B.; de Souza, B.; Neese, F.; Izsák, R.
     An improved chain of spheres for exchange algorithm
     J. Chem. Phys. 2021 155(10), 104109
     doi.org/10.1063/5.0058766
  5. Neese, F.
     The SHARK Integral Generation and Digestion System
     J. Comp. Chem. 2022 44(3), 381
     doi.org/10.1002/jcc.26942

List of suggested additional citations. These are papers that are important in the 'surrounding' of 
of this run, or papers that preceded the highly important papers. If you like your results we are grateful for a citation.

  1. Izsak, R.; Neese, F.
     An overlap fitted chain of spheres exchange method
     J. Chem. Phys. 2011 135 , 144105
     doi.org/10.1063/1.3646921
  2. Izsak, R.; Hansen, A.; Neese, F.
     The resolution of identity and chain of spheres approximations for the LPNO-CCSD singles Fock term
     Molec. Phys. 2012 110 , 2413-2417
     doi.org/10.1080/00268976.2012.687466
  3. Neese, F.
     The ORCA program system
     WIRES Comput. Molec. Sci. 2012 2(1), 73-78
     doi.org/10.1002/wcms.81
  4. Izsak, R.; Neese, F.; Klopper, W.
     Robust fitting techniques in the chain of spheres approximation to the Fock exchange: The role of the complementary space
     J. Chem. Phys. 2013 139 , 
     doi.org/10.1063/1.4819264
  5. Neese, F.
     Software update: the ORCA program system, version 4.0
     WIRES Comput. Molec. Sci. 2018 8(1), 1-6
     doi.org/10.1002/wcms.1327
  6. Neese, F.; Wennmohs, F.; Becker, U.; Riplinger, C.
     The ORCA quantum chemistry program package
     J. Chem. Phys. 2020 152(22), 224108
     doi.org/10.1063/5.0004608
  7. Neese, F.
     Software update: The ORCA program system—Version 5.0
     WIRES Comput. Molec. Sci. 2022 12(1), e1606
     doi.org/10.1002/wcms.1606

List of optional additional citations

  1. Neese, F.
     Approximate second-order SCF convergence for spin unrestricted wavefunctions
     Chem. Phys. Lett. 2000 325(1-3), 93-98
     doi.org/10.1016/s0009-2614(00)00662-x

Timings for individual modules:

Sum of individual times          ...       68.316 sec (=   1.139 min)
Startup calculation              ...        4.661 sec (=   0.078 min)   6.8 %
SCF iterations                   ...       17.945 sec (=   0.299 min)  26.3 %
Property integrals               ...        9.232 sec (=   0.154 min)  13.5 %
SCF Response                     ...        6.051 sec (=   0.101 min)   8.9 %
Property calculations            ...       19.258 sec (=   0.321 min)  28.2 %
SCF Gradient evaluation          ...       11.147 sec (=   0.186 min)  16.3 %
Geometry relaxation              ...        0.022 sec (=   0.000 min)   0.0 %
                             ****ORCA TERMINATED NORMALLY****
TOTAL RUN TIME: 0 days 0 hours 1 minutes 10 seconds 927 msec
