
                                 *****************
                                 * O   R   C   A *
                                 *****************

                                            #,                                       
                                            ###                                      
                                            ####                                     
                                            #####                                    
                                            ######                                   
                                           ########,                                 
                                     ,,################,,,,,                         
                               ,,#################################,,                 
                          ,,##########################################,,             
                       ,#########################################, ''#####,          
                    ,#############################################,,   '####,        
                  ,##################################################,,,,####,       
                ,###########''''           ''''###############################       
              ,#####''   ,,,,##########,,,,          '''####'''          '####       
            ,##' ,,,,###########################,,,                        '##       
           ' ,,###''''                  '''############,,,                           
         ,,##''                                '''############,,,,        ,,,,,,###''
      ,#''                                            '''#######################'''  
     '                                                          ''''####''''         
             ,#######,   #######,   ,#######,      ##                                
            ,#'     '#,  ##    ##  ,#'     '#,    #''#        ,####,    ,#,          
            ##       ##  ##   ,#'  ##            #'  '#       #'       ,# #          
            ##       ##  #######   ##           ,######,      #####,      #          
            '#,     ,#'  ##    ##  '#,     ,#' ,#      #,     #,   #      #          
             '#######'   ##     ##  '#######'  #'      '#     '####' #    #          



                #########################################################
                #                        -***-                          #
                #          Department of theory and spectroscopy        #
                #                                                       #
                #                      Frank Neese                      #
                #                                                       #
                #     Directorship, Architecture, Infrastructure        #
                #                    SHARK, DRIVERS                     #
                #        Core code/Algorithms in most modules           #
                #                                                       #
                #        Max Planck Institute fuer Kohlenforschung      #
                #                Kaiser Wilhelm Platz 1                 #
                #                 D-45470 Muelheim/Ruhr                 #
                #                      Germany                          #
                #                                                       #
                #                  All rights reserved                  #
                #                        -***-                          #
                #########################################################


                         Program Version 6.1.1  -  RELEASE   -
                                (GIT: $487d211c$)
                          ($2025-11-21 10:33:24 +0100$)


 With contributions from (in alphabetic order):
[Max-Planck-Institut fuer Kohlenforschung]                               
  Daniel Aravena         : Magnetic Suceptibility                        
  Michael Atanasov       : Ab Initio Ligand Field Theory (pilot matlab implementation)
  Alexander A. Auer      : GIAO ZORA, VPT2 properties, NMR spectrum      
  Ute Becker             : All parallelization in ORCA, NUMFREQ, NUMCALC 
  Giovanni Bistoni       : ED, misc. LED, open-shell LED, HFLD           
  Dmytro Bykov           : pre 5.0 version of the SCF Hessian            
  Marcos Casanova-Páez   : Triplet and SCS-CIS(D). UHF-(DLPNO)-IP/EA/STEOM-CCSD. UHF-CVS-IP/STEOM-CCSD   
  Vijay G. Chilkuri      : MRCI spin determinant printing, contributions to CSF-ICE 
  Pauline Colinet        : FMM embedding                                 
  Dipayan Datta          : RHF DLPNO-CCSD density                        
  Achintya Kumar Dutta   : EOM-CC, STEOM-CC                              
  Nicolas Foglia         : Exact transition moments, OPA infrastructure, MCD improvements    
  Dmitry Ganyushin       : Spin-Orbit,Spin-Spin,Magnetic field MRCI      
  Miquel Garcia-Rates    : C-PCM and meta-GGA Hessian, CCSD/C-PCM, Gaussian charge scheme 
  Tiago L. C. Gouveia    : GS-ROHF, GS-ROCIS                             
  Yang Guo               : DLPNO-NEVPT2, F12-NEVPT2, CIM, IAO-localization        
  Andreas Hansen         : Spin unrestricted coupled pair/coupled cluster methods 
  Ingolf Harden          : AUTO-CI MPn and infrastructure                
  Benjamin Helmich-Paris : MC-RPA, TRAH-(SCF,CASSCF), AVAS, COSX integrals, SCF dyn. polar., MC-PDFT, srDFT 
  Lee Huntington         : MR-EOM, pCC                                   
  Robert Izsak           : Overlap fitted RIJCOSX, COSX-SCS-MP3, EOM     
  Riya Kayal             : Wick's Theorem for AUTO-CI, AUTO-CI UHF-CCSDT 
  Emily Kempfer          : AUTO-CI RHF CISDT and CCSDT, approximate NEVPT4
  Christian Kollmar      : KDIIS, OOCD, Brueckner-CCSD(T), CCSD density, CASPT2, CASPT2-K, improved NEVPT2 
  Axel Koslowski         : Symmetry handling                             
  Simone Kossmann        : meta-GGA functionals, TD-DFT gradient, OOMP2, (MP2 Hessian; deprecated post 5.0) 
  Lucas Lang             : DCDCAS, Hyperfine gauge corrections, ICE-SOC+SSC
  Marvin Lechner         : AUTO-CI (C++ implementation), FIC-MRCC        
  Spencer Leger          : CASSCF response                               
  Dagmar Lenk            : GEPOL surface, SMD, ORCA-2-JSON               
  Dimitrios Liakos       : Extrapolation schemes; Compound Job, Property file
  Dimitrios Manganas     : Further ROCIS development; embedding schemes. LFT, Crystal Embedding 
  Dimitrios Pantazis     : SARC Basis sets                               
  Anastasios Papadopoulos: AUTO-CI, single reference methods and gradients 
  Taras Petrenko         : pre 6.0 DFT Hessian and TD-DFT gradient,  ECA, NRVS 
  Petra Pikulova         : Analytic Raman intensities                    
  Peter Pinski           : DLPNO-MP2, DLPNO-MP2 Gradient                 
  Shashank Vittal Rao    : ES-AILFT, MagRelax                            
  Christoph Reimann      : Effective Core Potentials                     
  Marius Retegan         : Local ZFS, SOC                                
  Christoph Riplinger    : Optimizer, TS searches, QM/MM, DLPNO-CCSD(T), (RO)-DLPNO pert. Triples 
  Michael Roemelt        : Original ROCIS implementation, recursive CI coupling coefficients
  Masaaki Saitow         : Open-shell DLPNO-CCSD energy and density      
  Barbara Sandhoefer     : DKH picture change effects                    
  Yorick L. A. Schmerwitz: GMF and freeze-and-release deltaSCF, NEB S-IDPP initial path                    
  Kantharuban Sivalingam : CASSCF convergence/infrastructure, NEVPT2, NEVPT3, NEVPT4(SD), FIC-MRCI and CEPA variants
  Bernardo de Souza      : ESD, SOC TD-DFT                               
  Georgi L. Stoychev     : AutoAux, RI-MP2 NMR, DLPNO-MP2 response, X2C  
  Van Anh Tran           : RI-MP2 g-tensors                              
  Willem Van den Heuvel  : Paramagnetic NMR                              
  Zikuan Wang            : NOTCH, Electric field optimization            
  Frank Wennmohs         : Technical directorship and infrastructure     
  Hang Xu                : AUTO-CI-Response properties                   
                                                                         
[FACCTs GmbH]                                                            
  Markus Bursch, Nicolas Foglia, Miquel Garcia-Rates, Ingolf Harden, Hagen Neugebauer, Anastasios Papadopoulos, 
  Christoph Riplinger, Bernardo de Souza, Georgi L. Stoychev                                                    
                                                                 
  APM, various basis sets, CI-OPT, improved COSX, DLPNO-Multilevel,           
  DOCKER, DRACO, updates on ESD, Fragmentator, GOAT, IRC, LR-CPCM, L-BFGS, MBIS, meta-GGA TD-DFT gradient, ML-optimized integration grids, 
  MM, NACMEs, nearIR, NEB, NEB-TS, NL-DFT gradient (VV10), 2- and 3-layer-ONIOM, interface openCOSMO-RS, QMMM,   
  Crystal-QMMM, RESP, rigid body optimization, SF, symmetry and pop. for TD-DFT, various functionals, SOLVATOR                                   
                                                                         
[Other institutions]                                                     
  V. Asgeirsson          : NEB                                           
  Christoph Bannwarth    : sTDA-DFT, sTD-DFT, PBEh-3c, B97-3c, D3        
  Giovanni Bistoni       : ETS/NOCV, ADLD/ADEX, COVALED                  
  Martin Brehm           : Molecular dynamics                            
  Ronald Cardenas        : ETS/NOCV                                      
  Martina Colucci        : COVALED                                       
  Sebastian Ehlert       : rSCAN, r2SCAN, r2SCAN-3c, D4, dhf basis sets  
  Marvin Friede          : D4 for Fr, Ra, Ac-Lr                          
  Lars Goerigk           : TD-DFT with DH, B97 family of functionals     
  Stefan Grimme          : VdW corrections, initial TS optimization, DFT functionals, gCP, sTDA/sTD-DF 
  Waldemar Hujo          : DFT-NL                                        
  H. Jonsson             : NEB                                           
  Holger Kruse           : gCP                                           
  Marcel Mueller         : wB97X-3c, vDZP basis set                      
  Hagen Neugebauer       : wr2SCAN, Native XTB                           
  Gianluca Regni         : ADLD/ADEX                                     
  Tobias Risthaus        : pre 6.0 range-separated hybrid DFT and stability analysis
  Lukas Wittmann         : regularized MP2, r2SCAN double-hybrids, wr2SCAN        
                                                                         
We gratefully acknowledge several colleagues who have allowed us to      
interface, adapt or use parts of their codes:                            
  Ed Valeev, F. Pavosevic, A. Kumar             : LibInt (2-el integral package), F12 methods 
  Garnet Chan, S. Sharma, J. Yang, R. Olivares  : DMRG                   
  Ulf Ekstrom                                   : XCFun DFT Library      
  Mihaly Kallay                                 : mrcc  (arbitrary order and MRCC methods)
  Frank Weinhold                                : gennbo (NPA and NBO analysis)           
  Simon Mueller                                 : openCOSMO-RS                            
  Christopher J. Cramer and Donald G. Truhlar   : smd solvation model                     
  S Lehtola, MJT Oliveira, MAL Marques          : LibXC Library                           
  Liviu Ungur et al                             : ANISO software                          


 Your calculation uses the libint2 library for the computation of 2-el integrals
 For citations please refer to: http://libint.valeyev.net

 Your ORCA version has been built with support for libXC version: 7.0.0
 For citations please refer to: https://libxc.gitlab.io

 This ORCA versions uses:
   CBLAS   interface :  Fast vector & matrix operations
   LAPACKE interface :  Fast linear algebra routines
   SCALAPACK package :  Parallel linear algebra routines
   Shared memory     :  Shared parallel matrices
   BLAS/LAPACK       :  OpenBLAS 0.3.29  USE64BITINT DYNAMIC_ARCH NO_AFFINITY Cooperlake SINGLE_THREADED
        Core in use  :  Cooperlake
   Copyright (c) 2011-2014, The OpenBLAS Project


  ***********************************
  * Starting time: Thu Apr 23 06:21:17 2026
  * Host name:     DESKTOP-DC1WS01
  * Process ID:    365090
  * Working dir.:  /mnt/work-disk/work/test/benzene-opt.res
  ***********************************

NOTE: MaxCore=6000 MB was set to SCF,MP2,MDCI,CIPSI,MRCI,RASCI and CIS
      => If you want to overwrite this, your respective input block should be placed after the MaxCore statement
Warning: RI is on but no J-basis has been assigned. Assigning Def2/J (nothing to worry about!)
================================================================================

----- Orbital basis set information -----
Your calculation utilizes the basis: def2-SVP
   F. Weigend and R. Ahlrichs, Phys. Chem. Chem. Phys. 7, 3297 (2005).

----- AuxJ basis set information -----
Your calculation utilizes the auxiliary basis: def2/J
   H-Rn: F. Weigend, Phys. Chem. Chem. Phys. 8, 1057 (2006).
   Fr-Lr: K. Eichkorn, F. Weigend, O. Treutler, R. Ahlrichs; Theor. Chem. Acc. 97, 119 (1997).

================================================================================
                                        WARNINGS
                       Please study these warnings very carefully!
================================================================================


WARNING: Geometry Optimization
  ===> : Switching off AutoStart
         For restart on a previous wavefunction, please use MOREAD

================================================================================
                                       INPUT FILE
================================================================================
NAME = benzene-opt.inp
|  1> %pal nprocs 8 end
|  2> %MaxCore 6000
|  3> 
|  4> ! B3LYP def2-SVP
|  5> ! Opt Freq
|  6> 
|  7> * xyz 0 1
|  8> C      0.803512   -1.140105   -0.008248
|  9> C      1.388855    0.125800   -0.028126
| 10> C      0.585344    1.265905   -0.019870
| 11> C     -0.803512    1.140105    0.008257
| 12> C     -1.388857   -0.125801    0.028129
| 13> C     -0.585345   -1.265907    0.019876
| 14> H      1.429544   -2.028375   -0.014689
| 15> H      2.470934    0.223815   -0.050042
| 16> H      1.041396    2.252190   -0.035356
| 17> H     -1.429537    2.028380    0.014674
| 18> H     -2.470937   -0.223814    0.050044
| 19> H     -1.041395   -2.252194    0.035352
| 20> *
| 21> 
| 22>                          ****END OF INPUT****
================================================================================

                       *****************************
                       * Geometry Optimization Run *
                       *****************************

Geometry optimization settings:
Update method            Update   .... BFGS
Choice of coordinates    CoordSys .... (2022) Redundant Internals
Initial Hessian          InHess   .... Almloef's Model
Max. no of cycles        MaxIter  .... 50

Convergence Tolerances:
Energy Change            TolE     ....  5.0000e-06 Eh
Max. Gradient            TolMAXG  ....  3.0000e-04 Eh/bohr
RMS Gradient             TolRMSG  ....  1.0000e-04 Eh/bohr
Max. Displacement        TolMAXD  ....  4.0000e-03 bohr
RMS Displacement         TolRMSD  ....  2.0000e-03 bohr
Strict Convergence                .... False

------------------------------------------------------------------------------
                        ORCA OPTIMIZATION COORDINATE SETUP
------------------------------------------------------------------------------

The optimization will be done in redundant internal coordinates (2022)
Making redundant internal coordinates   ...  (2022 redundants) done
Evaluating the initial hessian          ...  (Almloef) done
Evaluating the coordinates              ...  done
Calculating the B-matrix                .... done
Calculating the G-matrix                .... done
The number of degrees of freedom        ....   54

    -----------------------------------------------------------------
                    Redundant Internal Coordinates


    -----------------------------------------------------------------
         Definition                    Initial Value    Approx d2E/dq
    -----------------------------------------------------------------
      1. B(C   1,C   0)                  1.3948         0.613819   
      2. B(C   2,C   1)                  1.3948         0.613819   
      3. B(C   3,C   2)                  1.3948         0.613819   
      4. B(C   4,C   3)                  1.3948         0.613815   
      5. B(C   5,C   4)                  1.3948         0.613816   
      6. B(C   5,C   0)                  1.3948         0.613816   
      7. B(H   6,C   0)                  1.0867         0.364452   
      8. B(H   7,C   1)                  1.0867         0.364452   
      9. B(H   8,C   2)                  1.0867         0.364452   
     10. B(H   9,C   3)                  1.0867         0.364453   
     11. B(H  10,C   4)                  1.0867         0.364451   
     12. B(H  11,C   5)                  1.0867         0.364451   
     13. A(C   1,C   0,C   5)          120.0000         0.432504   
     14. A(C   1,C   0,H   6)          119.9998         0.353028   
     15. A(C   5,C   0,H   6)          120.0002         0.353028   
     16. A(C   2,C   1,H   7)          119.9999         0.353028   
     17. A(C   0,C   1,C   2)          120.0001         0.432504   
     18. A(C   0,C   1,H   7)          120.0001         0.353028   
     19. A(C   3,C   2,H   8)          120.0001         0.353028   
     20. A(C   1,C   2,H   8)          119.9999         0.353028   
     21. A(C   1,C   2,C   3)          120.0000         0.432504   
     22. A(C   4,C   3,H   9)          120.0002         0.353028   
     23. A(C   2,C   3,H   9)          119.9998         0.353028   
     24. A(C   2,C   3,C   4)          120.0000         0.432504   
     25. A(C   3,C   4,H  10)          120.0000         0.353027   
     26. A(C   3,C   4,C   5)          120.0000         0.432504   
     27. A(C   5,C   4,H  10)          120.0000         0.353028   
     28. A(C   0,C   5,C   4)          119.9999         0.432504   
     29. A(C   4,C   5,H  11)          120.0001         0.353028   
     30. A(C   0,C   5,H  11)          120.0000         0.353028   
     31. D(H   7,C   1,C   0,C   5)   -179.9997         0.026041   
     32. D(H   7,C   1,C   0,H   6)     -0.0007         0.026041   
     33. D(C   2,C   1,C   0,H   6)    179.9995         0.026041   
     34. D(C   2,C   1,C   0,C   5)      0.0005         0.026041   
     35. D(H   8,C   2,C   1,C   0)    179.9999         0.026040   
     36. D(C   3,C   2,C   1,C   0)     -0.0003         0.026040   
     37. D(C   3,C   2,C   1,H   7)    179.9999         0.026040   
     38. D(H   8,C   2,C   1,H   7)      0.0001         0.026040   
     39. D(H   9,C   3,C   2,H   8)      0.0007         0.026040   
     40. D(H   9,C   3,C   2,C   1)   -179.9991         0.026040   
     41. D(C   4,C   3,C   2,H   8)    179.9998         0.026040   
     42. D(C   4,C   3,C   2,C   1)      0.0000         0.026040   
     43. D(H  10,C   4,C   3,C   2)    180.0000         0.026040   
     44. D(C   5,C   4,C   3,H   9)    179.9992         0.026040   
     45. D(C   5,C   4,C   3,C   2)      0.0001         0.026040   
     46. D(H  10,C   4,C   3,H   9)     -0.0009         0.026040   
     47. D(H  11,C   5,C   4,H  10)      0.0005         0.026040   
     48. D(C   0,C   5,C   4,H  10)   -179.9998         0.026040   
     49. D(C   0,C   5,C   4,C   3)      0.0000         0.026040   
     50. D(H  11,C   5,C   0,H   6)      0.0003         0.026040   
     51. D(H  11,C   5,C   0,C   1)    179.9993         0.026040   
     52. D(H  11,C   5,C   4,C   3)   -179.9996         0.026040   
     53. D(C   4,C   5,C   0,H   6)   -179.9993         0.026040   
     54. D(C   4,C   5,C   0,C   1)     -0.0003         0.026040   
    -----------------------------------------------------------------

Number of atoms                         .... 12
Number of degrees of freedom            .... 54


         *************************************************************
         *                GEOMETRY OPTIMIZATION CYCLE   1            *
         *************************************************************
---------------------------------
CARTESIAN COORDINATES (ANGSTROEM)
---------------------------------
  C      0.803512   -1.140105   -0.008248
  C      1.388855    0.125800   -0.028126
  C      0.585344    1.265905   -0.019870
  C     -0.803512    1.140105    0.008257
  C     -1.388857   -0.125801    0.028129
  C     -0.585345   -1.265907    0.019876
  H      1.429544   -2.028375   -0.014689
  H      2.470934    0.223815   -0.050042
  H      1.041396    2.252190   -0.035356
  H     -1.429537    2.028380    0.014674
  H     -2.470937   -0.223814    0.050044
  H     -1.041395   -2.252194    0.035352

----------------------------
CARTESIAN COORDINATES (A.U.)
----------------------------
  NO LB      ZA    FRAG     MASS         X           Y           Z
   0 C     6.0000    0    12.011    1.518418   -2.154486   -0.015586
   1 C     6.0000    0    12.011    2.624556    0.237728   -0.053150
   2 C     6.0000    0    12.011    1.106140    2.392214   -0.037549
   3 C     6.0000    0    12.011   -1.518418    2.154486    0.015603
   4 C     6.0000    0    12.011   -2.624559   -0.237729    0.053156
   5 C     6.0000    0    12.011   -1.106142   -2.392218    0.037560
   6 H     1.0000    0     1.008    2.701447   -3.833073   -0.027758
   7 H     1.0000    0     1.008    4.669389    0.422949   -0.094566
   8 H     1.0000    0     1.008    1.967953    4.256022   -0.066813
   9 H     1.0000    0     1.008   -2.701433    3.833083    0.027730
  10 H     1.0000    0     1.008   -4.669394   -0.422947    0.094569
  11 H     1.0000    0     1.008   -1.967951   -4.256030    0.066806

--------------------------------
INTERNAL COORDINATES (ANGSTROEM)
--------------------------------
 C      0   0   0     0.000000000000     0.00000000     0.00000000
 C      1   0   0     1.394825089951     0.00000000     0.00000000
 C      2   1   0     1.394825257759   120.00007941     0.00000000
 C      3   2   1     1.394825349951   119.99997507     0.00000000
 C      4   3   2     1.394826751337   119.99999912     0.00000000
 C      1   2   3     1.394826465561   120.00002304     0.00000000
 H      1   2   3     1.086729563601   119.99978703   179.99948152
 H      2   1   3     1.086730055498   120.00006631   179.99977623
 H      3   2   1     1.086729655492   119.99994863   179.99992130
 H      4   3   2     1.086729476061   119.99978886   180.00093192
 H      5   4   3     1.086730850668   120.00000988   179.99995122
 H      6   1   2     1.086730488872   120.00000592   179.99931422

---------------------------
INTERNAL COORDINATES (A.U.)
---------------------------
 C      0   0   0     0.000000000000     0.00000000     0.00000000
 C      1   0   0     2.635837424730     0.00000000     0.00000000
 C      2   1   0     2.635837741840   120.00007941     0.00000000
 C      3   2   1     2.635837916058   119.99997507     0.00000000
 C      4   3   2     2.635840564294   119.99999912     0.00000000
 C      1   2   3     2.635840024255   120.00002304     0.00000000
 H      1   2   3     2.053621256842   119.99978703   179.99948152
 H      2   1   3     2.053622186392   120.00006631   179.99977623
 H      3   2   1     2.053621430490   119.99994863   179.99992130
 H      4   3   2     2.053621091414   119.99978886   180.00093192
 H      5   4   3     2.053623689046   120.00000988   179.99995122
 H      6   1   2     2.053623005351   120.00000592   179.99931422

---------------------
BASIS SET INFORMATION
---------------------
There are 2 groups of distinct atoms

 Group   1 Type C   : 7s4p1d contracted to 3s2p1d pattern {511/31/1}
 Group   2 Type H   : 4s1p contracted to 2s1p pattern {31/1}

Atom   0C    basis set group =>   1
Atom   1C    basis set group =>   1
Atom   2C    basis set group =>   1
Atom   3C    basis set group =>   1
Atom   4C    basis set group =>   1
Atom   5C    basis set group =>   1
Atom   6H    basis set group =>   2
Atom   7H    basis set group =>   2
Atom   8H    basis set group =>   2
Atom   9H    basis set group =>   2
Atom  10H    basis set group =>   2
Atom  11H    basis set group =>   2
---------------------------------
AUXILIARY/J BASIS SET INFORMATION
---------------------------------
There are 2 groups of distinct atoms

 Group   1 Type C   : 12s5p4d2f1g contracted to 6s4p3d1f1g pattern {711111/2111/211/2/1}
 Group   2 Type H   : 5s2p1d contracted to 3s1p1d pattern {311/2/1}

Atom   0C    basis set group =>   1
Atom   1C    basis set group =>   1
Atom   2C    basis set group =>   1
Atom   3C    basis set group =>   1
Atom   4C    basis set group =>   1
Atom   5C    basis set group =>   1
Atom   6H    basis set group =>   2
Atom   7H    basis set group =>   2
Atom   8H    basis set group =>   2
Atom   9H    basis set group =>   2
Atom  10H    basis set group =>   2
Atom  11H    basis set group =>   2


           ************************************************************
           *        Program running with 8 parallel MPI-processes     *
           *              working on a common directory               *
           ************************************************************
------------------------------------------------------------------------------
                             ORCA STARTUP CALCULATIONS
                           -- RI-GTO INTEGRALS CHOSEN --
------------------------------------------------------------------------------
------------------------------------------------------------------------------
                   ___                                                        
                  /   \      - P O W E R E D   B Y -                         
                 /     \                                                     
                 |  |  |   _    _      __       _____    __    __             
                 |  |  |  | |  | |    /  \     |  _  \  |  |  /  |          
                  \  \/   | |  | |   /    \    | | | |  |  | /  /          
                 / \  \   | |__| |  /  /\  \   | |_| |  |  |/  /          
                |  |  |   |  __  | /  /__\  \  |    /   |      \           
                |  |  |   | |  | | |   __   |  |    \   |  |\   \          
                \     /   | |  | | |  |  |  |  | |\  \  |  | \   \       
                 \___/    |_|  |_| |__|  |__|  |_| \__\ |__|  \__/        
                                                                              
                      - O R C A' S   B I G   F R I E N D -                    
                                      &                                       
                       - I N T E G R A L  F E E D E R -                       
                                                                              
 v1 FN, 2020, v2 2021, v3 2022-2024                                           
------------------------------------------------------------------------------


----------------------
SHARK INTEGRAL PACKAGE
----------------------

Number of atoms                             ...     12
Number of basis functions                   ...    114
Number of shells                            ...     54
Maximum angular momentum                    ...      2
Integral batch strategy                     ... SHARK/LIBINT Hybrid
RI-J (if used) integral strategy            ... SPLIT-RIJ (Revised 2003 algorithm where possible)
Printlevel                                  ...      1
Contraction scheme used                     ... SEGMENTED contraction
Prescreening option                         ... SCHWARTZ
   Thresh                                   ... 2.500e-11
   Tcut                                     ... 2.500e-12
   Tpresel                                  ... 2.500e-12 
Coulomb Range Separation                    ... NOT USED
Exchange Range Separation                   ... NOT USED
Multipole approximations                    ... NOT USED
Finite Nucleus Model                        ... NOT USED
CABS basis                                  ... NOT available
Auxiliary Coulomb fitting basis             ... AVAILABLE
   # of basis functions in Aux-J            ...    360
   # of shells in Aux-J                     ...    120
   Maximum angular momentum in Aux-J        ...      4
Auxiliary J/K fitting basis                 ... NOT available
Auxiliary Correlation fitting basis         ... NOT available
Auxiliary 'external' fitting basis          ... NOT available

Checking pre-screening integrals            ... done (  0.0 sec) Dimension = 54
   => SHARK Basis and OBASIS are compatible. Storing Pre-screening
Shell pair information
Shell pair cut-off parameter TPreSel        ...   2.5e-12
Total number of shell pairs                 ...      1485
Shell pairs after pre-screening             ...      1467
Total number of primitive shell pairs       ...      5349
Primitive shell pairs kept                  ...      4140
          la=0 lb=0:    456 shell pairs
          la=1 lb=0:    534 shell pairs
          la=1 lb=1:    168 shell pairs
          la=2 lb=0:    180 shell pairs
          la=2 lb=1:    108 shell pairs
          la=2 lb=2:     21 shell pairs

Checking whether 4 symmetric matrices of dimension 114 fit in memory
:Max Core in MB      =   6000.00
 MB in use           =      5.20
 MB left             =   5994.80
 MB needed           =      0.20
 Data fit in memory  = YES
Calculating RI/J V-Matrix + Cholesky decomp.... done (  0.0 sec)
Calculating Nuclear repulsion               ... done (  0.0 sec) ENN=    203.416099783818 Eh

Diagonalization of the overlap matrix:
Smallest eigenvalue                        ... 3.156e-04
Time for diagonalization                   ...    0.006 sec
Threshold for overlap eigenvalues          ... 1.000e-07
Number of eigenvalues below threshold      ... 0
Time for construction of square roots      ...    0.001 sec
Total time needed                          ...    0.009 sec

-------------------
DFT GRID GENERATION
-------------------

General Integration Accuracy     IntAcc      ... 4.388
Radial Grid Type                 RadialGrid  ... OptM3 with GC (2021)
Angular Grid (max. ang.)         AngularGrid ... 4 (Lebedev-302)
Angular grid pruning method      GridPruning ... 4 (adaptive)
Weight generation scheme         WeightScheme... mBecke (2022)
Basis function cutoff            BFCut       ... 1.0000e-11
Integration weight cutoff        WCut        ... 1.0000e-14
Partially contracted basis set               ... off
Rotationally invariant grid construction     ... off
Angular grids for H and He will be reduced by one unit

Total number of grid points                  ...    55490
Total number of batches                      ...      870
Average number of points per batch           ...       63
Average number of grid points per atom       ...     4624

--------------------
COSX GRID GENERATION
--------------------

GRIDX 1
-------
General Integration Accuracy     IntAcc      ... 3.816
Radial Grid Type                 RadialGrid  ... OptM3 with GC (2021)
Angular Grid (max. ang.)         AngularGrid ... 1 (Lebedev-50)
Angular grid pruning method      GridPruning ... 4 (adaptive)
Weight generation scheme         WeightScheme... mBecke (2022)
Basis function cutoff            BFCut       ... 1.0000e-11
Integration weight cutoff        WCut        ... 1.0000e-14
Partially contracted basis set               ... on
Rotationally invariant grid construction     ... off
Angular grids for H and He will be reduced by one unit

Total number of grid points                  ...     7122
Total number of batches                      ...       60
Average number of points per batch           ...      118
Average number of grid points per atom       ...      594
UseSFitting                                  ... on

GRIDX 2
-------
General Integration Accuracy     IntAcc      ... 4.020
Radial Grid Type                 RadialGrid  ... OptM3 with GC (2021)
Angular Grid (max. ang.)         AngularGrid ... 2 (Lebedev-110)
Angular grid pruning method      GridPruning ... 4 (adaptive)
Weight generation scheme         WeightScheme... mBecke (2022)
Basis function cutoff            BFCut       ... 1.0000e-11
Integration weight cutoff        WCut        ... 1.0000e-14
Partially contracted basis set               ... on
Rotationally invariant grid construction     ... off
Angular grids for H and He will be reduced by one unit

Total number of grid points                  ...    15484
Total number of batches                      ...      126
Average number of points per batch           ...      122
Average number of grid points per atom       ...     1290
UseSFitting                                  ... on

GRIDX 3
-------
General Integration Accuracy     IntAcc      ... 4.338
Radial Grid Type                 RadialGrid  ... OptM3 with GC (2021)
Angular Grid (max. ang.)         AngularGrid ... 3 (Lebedev-194)
Angular grid pruning method      GridPruning ... 4 (adaptive)
Weight generation scheme         WeightScheme... mBecke (2022)
Basis function cutoff            BFCut       ... 1.0000e-11
Integration weight cutoff        WCut        ... 1.0000e-14
Partially contracted basis set               ... on
Rotationally invariant grid construction     ... off
Angular grids for H and He will be reduced by one unit

Total number of grid points                  ...    34052
Total number of batches                      ...      272
Average number of points per batch           ...      125
Average number of grid points per atom       ...     2838
UseSFitting                                  ... on
Grids setup in   0.4 sec
Initializing property integral containers    ... done (  0.0 sec)

SHARK setup successfully completed in   0.5 seconds

Maximum memory used throughout the entire STARTUP-calculation: 15.3 MB


           ************************************************************
           *        Program running with 8 parallel MPI-processes     *
           *              working on a common directory               *
           ************************************************************
-------------------------------------------------------------------------------
                                 ORCA GUESS
                   Start orbitals & Density for SCF / CASSCF
-------------------------------------------------------------------------------

------------
SCF SETTINGS
------------
Hamiltonian:
 Density Functional     Method          .... DFT(GTOs)
 Exchange Functional    Exchange        .... B88
   X-Alpha parameter    XAlpha          ....  0.666667
   Becke's b parameter  XBeta           ....  0.004200
 Correlation Functional Correlation     .... LYP
 LDA part of GGA corr.  LDAOpt          .... VWN-5
 Gradients option       PostSCFGGA      .... off
 Hybrid DFT is turned on
   Fraction HF Exchange ScalHFX         ....  0.200000
   Scaling of DF-GGA-X  ScalDFX         ....  0.720000
   Scaling of DF-GGA-C  ScalDFC         ....  0.810000
   Scaling of DF-LDA-C  ScalLDAC        ....  1.000000
   Perturbative correction              ....  0.000000
   NL short-range parameter             ....  4.800000
 RI-approximation to the Coulomb term is turned on
   Number of AuxJ basis functions       .... 360
   RIJ-COSX (HFX calculated with COS-X)).... on


General Settings:
 Integral files         IntName         .... benzene-opt
 Hartree-Fock type      HFTyp           .... RHF
 Total Charge           Charge          ....    0
 Multiplicity           Mult            ....    1
 Number of Electrons    NEL             ....   42
 Basis Dimension        Dim             ....  114
 Nuclear Repulsion      ENuc            ....    203.4160997838 Eh

Convergence Acceleration:
 AO-DIIS                CNVDIIS         .... on
   Start iteration      DIISMaxIt       ....    12
   Startup error        DIISStart       ....  0.200000
   # of expansion vecs  DIISMaxEq       ....     5
   Bias factor          DIISBfac        ....   1.050
   Max. coefficient     DIISMaxC        ....  10.000
 MO-DIIS                CNVKDIIS        .... off
 Trust-Rad. Augm. Hess. CNVTRAH         .... auto
   Auto Start mean grad. ratio tolernc. ....  1.125000
   Auto Start start iteration           ....    50
   Auto Start num. interpolation iter.  ....    10
   Max. Number of Micro iterations      ....    24
   Max. Number of Macro iterations      .... Maxiter - #DIIS iter
   Number of Davidson start vectors     ....     2
   Converg. threshold    (grad. norm)   ....   1.000e-05
   Grad. Scal. Fac. for Micro threshold ....   0.100
   Minimum threshold for Micro iter.    ....   1.000e-02
   NR start threshold (gradient norm)   ....   1.000e-04
   Initial trust radius                 ....   0.400
   Minimum AH scaling param. (alpha)    ....   1.000
   Maximum AH scaling param. (alpha)    .... 1000.000
   Quad. conv. algorithm                .... NR
   White noise on init. David. guess    .... on
   Maximum white noise                  ....   0.010
   Pseudo random numbers                .... off
   Inactive MOs                         .... canonical
   Orbital update algorithm             .... Taylor
   Preconditioner                       .... Diag
   Full preconditioner red. dimension   ....   250
 SOSCF                 CNVSOSCF           .... on
   Start iteration     SOSCFMaxIt         ....   150
   Startup grad/error  SOSCFStart         ....  0.003300
   Hessian update      SOSCFHessUp        .... L-BFGS
   Autom. constraints  SOSCFAutoConstrain .... off
 Level Shifting         CNVShift        .... on
   Level shift para.    LevelShift      ....    0.2500
   Turn off err/grad.   ShiftErr        ....    0.0010
 Zerner damping         CNVZerner       .... off
 Static damping         CNVDamp         .... on
   Fraction old density DampFac         ....    0.7000
   Max. Damping (<1)    DampMax         ....    0.9800
   Min. Damping (>=0)   DampMin         ....    0.0000
   Turn off err/grad.   DampErr         ....    0.1000

SCF Procedure:
 Maximum # iterations   MaxIter         ....   125
 SCF integral mode      SCFMode         .... Direct
   Integral package                     .... SHARK and LIBINT hybrid scheme
 Reset frequency        DirectResetFreq ....    20
 Integral Threshold     Thresh          ....  2.500e-11 Eh
 Primitive CutOff       TCut            ....  2.500e-12 Eh

Convergence Tolerance:
 Convergence Check Mode ConvCheckMode   .... Total+1el-Energy
 Convergence forced     ConvForced      .... 0
 Energy Change          TolE            ....  1.000e-08 Eh
 1-El. energy change                    ....  1.000e-05 Eh
 Orbital Gradient       TolG            ....  1.000e-05
 Orbital Rotation angle TolX            ....  1.000e-05
 DIIS Error             TolErr          ....  5.000e-07

------------------------------
INITIAL GUESS: MODEL POTENTIAL
------------------------------
Loading Hartree-Fock densities                     ... done
Calculating cut-offs                               ... done
Initializing the effective Hamiltonian             ... done
Setting up the integral package (SHARK)            ... done
Starting the Coulomb interaction                   ... done (   0.0 sec)
Making the grid                                    ... done (   0.1 sec)
Mapping shells                                     ... done
Starting the XC term evaluation                    ... done (   0.0 sec)
  promolecular density results
     # of electrons  =     41.996662783
     EX              =    -32.606103423
     EC              =     -1.377155737
     EX+EC           =    -33.983259160
Transforming the Hamiltonian                       ... done (   0.0 sec)
Diagonalizing the Hamiltonian                      ... done (   0.0 sec)
Back transforming the eigenvectors                 ... done (   0.0 sec)
Now organizing SCF variables                       ... done
                      ------------------
                      INITIAL GUESS DONE (   0.1 sec)
                      ------------------
             **** ENERGY FILE WAS UPDATED (benzene-opt.en.tmp) ****
Finished Guess after   0.2 sec
Maximum memory used throughout the entire GUESS-calculation: 7.6 MB


           ************************************************************
           *        Program running with 8 parallel MPI-processes     *
           *              working on a common directory               *
           ************************************************************

-------------------------------------------------------------------------------------------
                                      ORCA LEAN-SCF
                              memory conserving SCF solver
-------------------------------------------------------------------------------------------

----------------------------------------D-I-I-S--------------------------------------------
Iteration    Energy (Eh)           Delta-E    RMSDP     MaxDP     DIISErr   Damp  Time(sec)
-------------------------------------------------------------------------------------------
               ***  Starting incremental Fock matrix formation  ***
    1    -231.7957481887915776     0.00e+00  1.20e-02  4.93e-02  1.21e-01  0.700   0.3
    2    -231.8555161456520466    -5.98e-02  8.64e-03  3.31e-02  6.19e-02  0.700   0.2
                               ***Turning on AO-DIIS***
    3    -231.8822065948018860    -2.67e-02  3.97e-03  1.22e-02  2.80e-02  0.700   0.2
    4    -231.8975510662592967    -1.53e-02  7.45e-03  2.09e-02  1.60e-02  0.000   0.2
    5    -231.9301809402083734    -3.26e-02  8.08e-04  3.41e-03  4.65e-03  0.000   0.2
                              *** Initializing SOSCF ***
---------------------------------------S-O-S-C-F--------------------------------------
Iteration    Energy (Eh)           Delta-E    RMSDP     MaxDP     MaxGrad    Time(sec)
--------------------------------------------------------------------------------------
    6    -231.9303471715880107    -1.66e-04  3.38e-04  1.27e-03  9.99e-04     0.2
               *** Restarting incremental Fock matrix formation ***
    7    -231.9304091603831637    -6.20e-05  1.92e-04  8.69e-04  2.03e-04     0.2
    8    -231.9304096070661387    -4.47e-07  3.99e-05  1.83e-04  1.32e-04     0.2
    9    -231.9304099693779051    -3.62e-07  1.59e-05  5.76e-05  2.60e-05     0.2
   10    -231.9304099798667096    -1.05e-08  4.48e-06  1.60e-05  9.47e-06     0.2
   11    -231.9304099811930939    -1.33e-09  1.31e-06  7.55e-06  1.16e-06     0.2
                 **** Energy Check signals convergence ****

               *****************************************************
               *                     SUCCESS                       *
               *           SCF CONVERGED AFTER  11 CYCLES          *
               *****************************************************

Recomputing exchange energy using gridx3       ... done (    0.283 sec)
Old exchange energy                            :     -6.634205257 Eh
New exchange energy                            :     -6.634224214 Eh
Exchange energy change after final integration :     -0.000018957 Eh
Total energy after final integration           :   -231.930428939 Eh
             **** ENERGY FILE WAS UPDATED (benzene-opt.en.tmp) ****

----------------
TOTAL SCF ENERGY
----------------

Total Energy       :       -231.93042893887133 Eh           -6311.14782 eV

Components:
Nuclear Repulsion  :        203.41609978381800 Eh            5535.23348 eV
Electronic Energy  :       -435.34650976531702 Eh          -11846.38079 eV
One Electron Energy:       -713.75297256643910 Eh          -19422.20579 eV
Two Electron Energy:        278.40646280112207 Eh            7575.82500 eV

Virial components:
Potential Energy   :       -461.35089530429372 Eh          -12553.99609 eV
Kinetic Energy     :        229.42046636542239 Eh            6242.84827 eV
Virial Ratio       :          2.01094044752507

DFT components:
N(Alpha)           :       20.999998920437 electrons
N(Beta)            :       20.999998920437 electrons
N(Total)           :       41.999997840875 electrons
E(X)               :      -26.323347800911 Eh       
E(C)               :       -1.633308318196 Eh       
E(XC)              :      -27.956656119107 Eh       

---------------
SCF CONVERGENCE
---------------

  Last Energy change         ...    1.3264e-09  Tolerance :   1.0000e-08
  Last MAX-Density change    ...    7.5490e-06  Tolerance :   1.0000e-07
  Last RMS-Density change    ...    1.3090e-06  Tolerance :   5.0000e-09
  Last DIIS Error            ...    9.9857e-04  Tolerance :   5.0000e-07
  Last Orbital Gradient      ...    1.1642e-06  Tolerance :   1.0000e-05
  Last Orbital Rotation      ...    2.8293e-06  Tolerance :   1.0000e-05


----------------
ORBITAL ENERGIES
----------------

  NO   OCC          E(Eh)            E(eV) 
   0   2.0000     -10.186388      -277.1857 
   1   2.0000     -10.186234      -277.1815 
   2   2.0000     -10.186223      -277.1812 
   3   2.0000     -10.185824      -277.1704 
   4   2.0000     -10.185814      -277.1701 
   5   2.0000     -10.185698      -277.1669 
   6   2.0000      -0.843690       -22.9580 
   7   2.0000      -0.735081       -20.0026 
   8   2.0000      -0.735067       -20.0022 
   9   2.0000      -0.594563       -16.1789 
  10   2.0000      -0.594555       -16.1787 
  11   2.0000      -0.520060       -14.1515 
  12   2.0000      -0.454164       -12.3584 
  13   2.0000      -0.445872       -12.1328 
  14   2.0000      -0.419573       -11.4172 
  15   2.0000      -0.419567       -11.4170 
  16   2.0000      -0.366079        -9.9615 
  17   2.0000      -0.343269        -9.3408 
  18   2.0000      -0.343268        -9.3408 
  19   2.0000      -0.252993        -6.8843 
  20   2.0000      -0.252988        -6.8842 
  21   0.0000      -0.004820        -0.1312 
  22   0.0000      -0.004819        -0.1311 
  23   0.0000       0.061650         1.6776 
  24   0.0000       0.102645         2.7931 
  25   0.0000       0.102649         2.7932 
  26   0.0000       0.140535         3.8241 
  27   0.0000       0.140555         3.8247 
  28   0.0000       0.153402         4.1743 
  29   0.0000       0.162034         4.4092 
  30   0.0000       0.291841         7.9414 
  31   0.0000       0.291861         7.9419 
*Only the first 10 virtual orbitals were printed.

                    ********************************
                    * MULLIKEN POPULATION ANALYSIS *
                    ********************************

-----------------------
MULLIKEN ATOMIC CHARGES
-----------------------
   0 C :    0.020629
   1 C :    0.020535
   2 C :    0.020842
   3 C :    0.020629
   4 C :    0.020535
   5 C :    0.020842
   6 H :   -0.020636
   7 H :   -0.020543
   8 H :   -0.020828
   9 H :   -0.020636
  10 H :   -0.020542
  11 H :   -0.020827
Sum of atomic charges:    0.0000000

--------------------------------
MULLIKEN REDUCED ORBITAL CHARGES
--------------------------------
  0 C s       :     3.156783  s :     3.156783
      pz      :     0.986508  p :     2.787463
      px      :     0.921272
      py      :     0.879683
      dz2     :     0.002511  d :     0.035125
      dxz     :     0.005033
      dyz     :     0.003670
      dx2y2   :     0.010956
      dxy     :     0.012955

  1 C s       :     3.156482  s :     3.156482
      pz      :     0.986520  p :     2.787855
      px      :     0.839803
      py      :     0.961531
      dz2     :     0.002507  d :     0.035128
      dxz     :     0.002353
      dyz     :     0.006352
      dx2y2   :     0.013165
      dxy     :     0.010751

  2 C s       :     3.156698  s :     3.156698
      pz      :     0.986480  p :     2.787337
      px      :     0.940524
      py      :     0.860333
      dz2     :     0.002509  d :     0.035123
      dxz     :     0.005667
      dyz     :     0.003037
      dx2y2   :     0.011748
      dxy     :     0.012162

  3 C s       :     3.156783  s :     3.156783
      pz      :     0.986508  p :     2.787462
      px      :     0.921274
      py      :     0.879680
      dz2     :     0.002511  d :     0.035125
      dxz     :     0.005033
      dyz     :     0.003669
      dx2y2   :     0.010956
      dxy     :     0.012955

  4 C s       :     3.156484  s :     3.156484
      pz      :     0.986520  p :     2.787854
      px      :     0.839804
      py      :     0.961530
      dz2     :     0.002507  d :     0.035128
      dxz     :     0.002353
      dyz     :     0.006352
      dx2y2   :     0.013165
      dxy     :     0.010751

  5 C s       :     3.156698  s :     3.156698
      pz      :     0.986481  p :     2.787337
      px      :     0.940524
      py      :     0.860332
      dz2     :     0.002509  d :     0.035123
      dxz     :     0.005667
      dyz     :     0.003037
      dx2y2   :     0.011748
      dxy     :     0.012162

  6 H s       :     0.997648  s :     0.997648
      pz      :     0.004760  p :     0.022989
      px      :     0.007193
      py      :     0.011035

  7 H s       :     0.997557  s :     0.997557
      pz      :     0.004764  p :     0.022985
      px      :     0.014725
      py      :     0.003496

  8 H s       :     0.997837  s :     0.997837
      pz      :     0.004762  p :     0.022991
      px      :     0.005418
      py      :     0.012811

  9 H s       :     0.997648  s :     0.997648
      pz      :     0.004760  p :     0.022989
      px      :     0.007193
      py      :     0.011035

 10 H s       :     0.997557  s :     0.997557
      pz      :     0.004764  p :     0.022985
      px      :     0.014725
      py      :     0.003496

 11 H s       :     0.997836  s :     0.997836
      pz      :     0.004762  p :     0.022991
      px      :     0.005418
      py      :     0.012811



                     *******************************
                     * LOEWDIN POPULATION ANALYSIS *
                     *******************************

----------------------
LOEWDIN ATOMIC CHARGES
----------------------
   0 C :   -0.024846
   1 C :   -0.024909
   2 C :   -0.024826
   3 C :   -0.024846
   4 C :   -0.024909
   5 C :   -0.024826
   6 H :    0.024866
   7 H :    0.024884
   8 H :    0.024831
   9 H :    0.024866
  10 H :    0.024884
  11 H :    0.024832

-------------------------------
LOEWDIN REDUCED ORBITAL CHARGES
-------------------------------
  0 C s       :     2.859975  s :     2.859975
      pz      :     0.968004  p :     3.073874
      px      :     1.058256
      py      :     1.047613
      dz2     :     0.006168  d :     0.090997
      dxz     :     0.010470
      dyz     :     0.007167
      dx2y2   :     0.031325
      dxy     :     0.035867

  1 C s       :     2.859977  s :     2.859977
      pz      :     0.968030  p :     3.073935
      px      :     1.037327
      py      :     1.068578
      dz2     :     0.006160  d :     0.090997
      dxz     :     0.003981
      dyz     :     0.013660
      dx2y2   :     0.036342
      dxy     :     0.030855

  2 C s       :     2.859985  s :     2.859985
      pz      :     0.967995  p :     3.073841
      px      :     1.063193
      py      :     1.042653
      dz2     :     0.006164  d :     0.091000
      dxz     :     0.012003
      dyz     :     0.005636
      dx2y2   :     0.033126
      dxy     :     0.034070

  3 C s       :     2.859975  s :     2.859975
      pz      :     0.968004  p :     3.073874
      px      :     1.058257
      py      :     1.047612
      dz2     :     0.006168  d :     0.090997
      dxz     :     0.010470
      dyz     :     0.007167
      dx2y2   :     0.031325
      dxy     :     0.035867

  4 C s       :     2.859978  s :     2.859978
      pz      :     0.968031  p :     3.073935
      px      :     1.037327
      py      :     1.068577
      dz2     :     0.006160  d :     0.090997
      dxz     :     0.003981
      dyz     :     0.013660
      dx2y2   :     0.036341
      dxy     :     0.030855

  5 C s       :     2.859986  s :     2.859986
      pz      :     0.967996  p :     3.073841
      px      :     1.063193
      py      :     1.042652
      dz2     :     0.006164  d :     0.091000
      dxz     :     0.012003
      dyz     :     0.005636
      dx2y2   :     0.033126
      dxy     :     0.034070

  6 H s       :     0.907702  s :     0.907702
      pz      :     0.014405  p :     0.067432
      px      :     0.021379
      py      :     0.031648

  7 H s       :     0.907681  s :     0.907681
      pz      :     0.014417  p :     0.067435
      px      :     0.041527
      py      :     0.011491

  8 H s       :     0.907738  s :     0.907738
      pz      :     0.014410  p :     0.067431
      px      :     0.016621
      py      :     0.036400

  9 H s       :     0.907702  s :     0.907702
      pz      :     0.014405  p :     0.067432
      px      :     0.021379
      py      :     0.031648

 10 H s       :     0.907681  s :     0.907681
      pz      :     0.014417  p :     0.067435
      px      :     0.041527
      py      :     0.011491

 11 H s       :     0.907738  s :     0.907738
      pz      :     0.014409  p :     0.067431
      px      :     0.016621
      py      :     0.036400



                      *****************************
                      * MAYER POPULATION ANALYSIS *
                      *****************************

  NA   - Mulliken gross atomic population
  ZA   - Total nuclear charge
  QA   - Mulliken gross atomic charge
  VA   - Mayer's total valence
  BVA  - Mayer's bonded valence
  FA   - Mayer's free valence

  ATOM       NA         ZA         QA         VA         BVA        FA
  0 C      5.9794     6.0000     0.0206     3.8521     3.8521     0.0000
  1 C      5.9795     6.0000     0.0205     3.8522     3.8522     0.0000
  2 C      5.9792     6.0000     0.0208     3.8522     3.8522    -0.0000
  3 C      5.9794     6.0000     0.0206     3.8521     3.8521    -0.0000
  4 C      5.9795     6.0000     0.0205     3.8522     3.8522    -0.0000
  5 C      5.9792     6.0000     0.0208     3.8522     3.8522    -0.0000
  6 H      1.0206     1.0000    -0.0206     0.9770     0.9770     0.0000
  7 H      1.0205     1.0000    -0.0205     0.9769     0.9769     0.0000
  8 H      1.0208     1.0000    -0.0208     0.9770     0.9770    -0.0000
  9 H      1.0206     1.0000    -0.0206     0.9770     0.9770     0.0000
 10 H      1.0205     1.0000    -0.0205     0.9769     0.9769    -0.0000
 11 H      1.0208     1.0000    -0.0208     0.9770     0.9770     0.0000

  Mayer bond orders larger than 0.100000
B(  0-C ,  1-C ) :   1.3919 B(  0-C ,  5-C ) :   1.3917 B(  0-C ,  6-H ) :   0.9861 
B(  1-C ,  2-C ) :   1.3920 B(  1-C ,  7-H ) :   0.9859 B(  2-C ,  3-C ) :   1.3917 
B(  2-C ,  8-H ) :   0.9861 B(  3-C ,  4-C ) :   1.3919 B(  3-C ,  9-H ) :   0.9861 
B(  4-C ,  5-C ) :   1.3920 B(  4-C , 10-H ) :   0.9859 B(  5-C , 11-H ) :   0.9861 


-------
TIMINGS
-------

Total SCF time: 0 days 0 hours 0 min 2 sec 

Total time                  ....       2.806 sec
Sum of individual times     ....       2.590 sec  ( 92.3%)

SCF preparation             ....       0.131 sec  (  4.7%)
Fock matrix formation       ....       2.308 sec  ( 82.3%)
  Startup                   ....       0.005 sec  (  0.2% of F)
  Split-RI-J                ....       0.338 sec  ( 14.6% of F)
  Chain of spheres X        ....       1.553 sec  ( 67.3% of F)
  XC integration            ....       0.489 sec  ( 21.2% of F)
    XC Preparation          ....       0.000 sec  (  0.0% of XC)
    Basis function eval.    ....       0.129 sec  ( 26.4% of XC)
    Density eval.           ....       0.069 sec  ( 14.2% of XC)
    XC-Functional eval.     ....       0.021 sec  (  4.4% of XC)
    XC-Potential eval.      ....       0.055 sec  ( 11.2% of XC)
Diagonalization             ....       0.000 sec  (  0.0%)
Density matrix formation    ....       0.022 sec  (  0.8%)
Total Energy calculation    ....       0.011 sec  (  0.4%)
Population analysis         ....       0.013 sec  (  0.5%)
Orbital Transformation      ....       0.013 sec  (  0.5%)
Orbital Orthonormalization  ....       0.000 sec  (  0.0%)
DIIS solution               ....       0.056 sec  (  2.0%)
SOSCF solution              ....       0.037 sec  (  1.3%)
Finished LeanSCF after   2.8 sec

Maximum memory used throughout the entire LEANSCF-calculation: 9.7 MB


           ************************************************************
           *        Program running with 8 parallel MPI-processes     *
           *              working on a common directory               *
           ************************************************************

------------------------------------------------------------------------------
                         ORCA PROPERTY INTEGRAL CALCULATIONS
------------------------------------------------------------------------------

GBWName                                   ... benzene-opt.gbw
Number of atoms                           ...     12
Number of basis functions                 ...    114
Max core memory                           ...   6000 MB

Dipole integrals                          ... YES
Quadrupole integrals                      ...  NO
Linear momentum integrals                 ...  NO
Angular momentum integrals                ...  NO
Higher moments length integrals           ...  NO
Higher moments velocity integrals         ...  NO
Kinetic energy integrals                  ...  NO
GIAO right hand sides                     ...  NO
GIAO dipole derivative integrals          ...  NO
SOC integrals                             ...  NO
EPR diamagnetic integrals (GIAO)          ...  NO
EPR gauge integrals                       ...  NO
Field gradient integrals                  ...  NO (   0 nuclei)
Spin-dipole/Fermi contact integrals       ...  NO (   0 nuclei)
Contact density integrals                 ...  NO (   0 nuclei)
Nucleus-orbit integrals                   ...  NO (   0 nuclei)
Geometric perturbations                   ...  NO (  12 nuclei)

Choice of electric origin   ... Center of mass
Position of electric origin ... ( -0.0000, -0.0000,  0.0000) 
Choice of magnetic origin   ... GIAO
Position of magnetic origin ... (  0.0000,  0.0000,  0.0000) 

Calculating integrals                     ... Electric Dipole (Length)     done (  0.0 sec)

Property integrals calculated in   0.0 sec

Maximum memory used throughout the entire PROPINT-calculation: 7.8 MB

-------------------------   --------------------
FINAL SINGLE POINT ENERGY      -231.930428938871
-------------------------   --------------------



           ************************************************************
           *        Program running with 8 parallel MPI-processes     *
           *              working on a common directory               *
           ************************************************************
------------------------------------------------------------------------------
                         ORCA SCF GRADIENT CALCULATION
------------------------------------------------------------------------------

Nuc. rep. gradient        (SHARK) ... done (  0.0 sec)
HCore & Overlap gradient  (SHARK) ... done (  0.0 sec)
Split-RIJ-J gradient      (SHARK) ... done (  0.1 sec)
COSX-gradient                     ... done (  1.3 sec)
XC gradient                       ... done (  0.5 sec)

------------------
CARTESIAN GRADIENT
------------------

   1   C   :    0.000285421   -0.000349272   -0.000006425
   2   C   :    0.000469359    0.000026056   -0.000006770
   3   C   :    0.000164068    0.000412764   -0.000000029
   4   C   :   -0.000284869    0.000350183    0.000008745
   5   C   :   -0.000469648   -0.000026004    0.000005487
   6   C   :   -0.000164078   -0.000413665   -0.000000014
   7   H   :   -0.002760357    0.003914169    0.000029365
   8   H   :   -0.004767488   -0.000438053    0.000094561
   9   H   :   -0.001996235   -0.004334508    0.000067429
  10   H   :    0.002761102   -0.003913701   -0.000030435
  11   H   :    0.004766427    0.000438151   -0.000094216
  12   H   :    0.001996299    0.004333879   -0.000067699

Difference to translation invariance:
           :    0.0000000000   -0.0000000000   -0.0000000000

Difference to rotation invariance:
           :    0.0000335485   -0.0000033317    0.0000658820

Norm of the Cartesian gradient     ...    0.0117697499
RMS gradient                       ...    0.0019616250
MAX gradient                       ...    0.0047674879

-------
TIMINGS
-------

Total SCF gradient time     ....        1.938 sec

Densities                   ....       0.000 sec  (  0.0%)
One electron gradient       ....       0.031 sec  (  1.6%)
RI-J Coulomb gradient       ....       0.106 sec  (  5.5%)
COSX gradient               ....       1.326 sec  ( 68.4%)
XC gradient                 ....       0.474 sec  ( 24.5%)

Maximum memory used throughout the entire SCFGRAD-calculation: 12.6 MB
------------------------------------------------------------------------------
                         ORCA GEOMETRY RELAXATION STEP
------------------------------------------------------------------------------

Reading the OPT-File                    .... done
Getting information on internals        .... done
Copying old internal coords+grads       .... done
Making the new internal coordinates     .... (2022 redundants) done
Validating the new internal coordinates .... (2022 redundants) done
Calculating the B-matrix                .... done
Calculating the G,G- and P matrices     .... done
Transforming gradient to internals      .... done
Projecting the internal gradient        .... done
Number of atoms                         ....  12
Number of internal coordinates          ....  54
Current Energy                          ....  -231.930428939 Eh
Current gradient norm                   ....     0.011769750 Eh/bohr
Maximum allowed component of the step   ....  0.300
Current trust radius                    ....  0.300
Evaluating the initial hessian          ....  (Almloef) done
Projecting the Hessian                  .... done
Forming the augmented Hessian           .... done
Diagonalizing the augmented Hessian     .... done
Last element of RFO vector              ....  0.999336513
Lowest eigenvalues of augmented Hessian:
 -0.000559098  0.026040198  0.026040225  0.026040228  0.026040331
Length of the computed step             ....  0.036445795
The final length of the internal step   ....  0.036445795
Converting the step to Cartesian space:
 Initial RMS(Int)=    0.0049596445
Transforming coordinates:
 Iter   0:  RMS(Cart)=    0.0087147164 RMS(Int)=    2.2621914428
done
Storing new coordinates                 .... done

                                .--------------------.
          ----------------------|Geometry convergence|-------------------------
          Item                value                   Tolerance       Converged
          ---------------------------------------------------------------------
          RMS gradient        0.0021504016            0.0001000000      NO
          MAX gradient        0.0047897449            0.0003000000      NO
          RMS step            0.0049596445            0.0020000000      NO
          MAX step            0.0131221687            0.0040000000      NO
          -------------------------------------------------------------------------
          ........................................................
          Max(Bonds)      0.0069      Max(Angles)    0.00
          Max(Dihed)        0.01      Max(Improp)    0.00
          ---------------------------------------------------------------------

The optimization has not yet converged - more geometry cycles are needed


    ---------------------------------------------------------------------------
                         Redundant Internal Coordinates
                            (Angstroem and degrees)

        Definition                    Value    dE/dq     Step     New-Value
    ----------------------------------------------------------------------------
     1. B(C   1,C   0)                1.3948 -0.004352  0.0037    1.3986   
     2. B(C   2,C   1)                1.3948 -0.004315  0.0037    1.3985   
     3. B(C   3,C   2)                1.3948 -0.004321  0.0037    1.3985   
     4. B(C   4,C   3)                1.3948 -0.004351  0.0037    1.3986   
     5. B(C   5,C   4)                1.3948 -0.004313  0.0037    1.3985   
     6. B(C   5,C   0)                1.3948 -0.004320  0.0037    1.3985   
     7. B(H   6,C   0)                1.0867 -0.004790  0.0069    1.0937   
     8. B(H   7,C   1)                1.0867 -0.004788  0.0069    1.0937   
     9. B(H   8,C   2)                1.0867 -0.004773  0.0069    1.0936   
    10. B(H   9,C   3)                1.0867 -0.004790  0.0069    1.0937   
    11. B(H  10,C   4)                1.0867 -0.004787  0.0069    1.0937   
    12. B(H  11,C   5)                1.0867 -0.004772  0.0069    1.0936   
    13. A(C   1,C   0,C   5)          120.00  0.000002   -0.00    120.00   
    14. A(C   1,C   0,H   6)          120.00  0.000002   -0.00    120.00   
    15. A(C   5,C   0,H   6)          120.00 -0.000004    0.00    120.00   
    16. A(C   2,C   1,H   7)          120.00  0.000012   -0.00    120.00   
    17. A(C   0,C   1,C   2)          120.00 -0.000008    0.00    120.00   
    18. A(C   0,C   1,H   7)          120.00 -0.000004    0.00    120.00   
    19. A(C   3,C   2,H   8)          120.00  0.000006   -0.00    120.00   
    20. A(C   1,C   2,H   8)          120.00 -0.000013    0.00    120.00   
    21. A(C   1,C   2,C   3)          120.00  0.000007   -0.00    120.00   
    22. A(C   4,C   3,H   9)          120.00  0.000003   -0.00    120.00   
    23. A(C   2,C   3,H   9)          120.00 -0.000005    0.00    120.00   
    24. A(C   2,C   3,C   4)          120.00  0.000002   -0.00    120.00   
    25. A(C   3,C   4,H  10)          120.00 -0.000004    0.00    120.00   
    26. A(C   3,C   4,C   5)          120.00 -0.000009    0.00    120.00   
    27. A(C   5,C   4,H  10)          120.00  0.000013   -0.00    120.00   
    28. A(C   0,C   5,C   4)          120.00  0.000006   -0.00    120.00   
    29. A(C   4,C   5,H  11)          120.00 -0.000012    0.00    120.00   
    30. A(C   0,C   5,H  11)          120.00  0.000006   -0.00    120.00   
    31. D(H   7,C   1,C   0,C   5)   -180.00  0.000001   -0.00   -180.00   
    32. D(H   7,C   1,C   0,H   6)     -0.00  0.000002   -0.00     -0.01   
    33. D(C   2,C   1,C   0,H   6)    180.00  0.000001   -0.00    180.00   
    34. D(C   2,C   1,C   0,C   5)      0.00  0.000000   -0.00     -0.00   
    35. D(H   8,C   2,C   1,C   0)    180.00  0.000002   -0.00    180.00   
    36. D(C   3,C   2,C   1,C   0)     -0.00 -0.000000    0.00      0.00   
    37. D(C   3,C   2,C   1,H   7)    180.00 -0.000001    0.00    180.00   
    38. D(H   8,C   2,C   1,H   7)      0.00  0.000001   -0.00     -0.00   
    39. D(H   9,C   3,C   2,H   8)      0.00 -0.000000    0.00      0.00   
    40. D(H   9,C   3,C   2,C   1)   -180.00  0.000002   -0.00   -180.00   
    41. D(C   4,C   3,C   2,H   8)    180.00 -0.000002    0.00    180.00   
    42. D(C   4,C   3,C   2,C   1)      0.00  0.000000   -0.00     -0.00   
    43. D(H  10,C   4,C   3,C   2)    180.00 -0.000001    0.00    180.00   
    44. D(C   5,C   4,C   3,H   9)    180.00 -0.000002    0.00    180.00   
    45. D(C   5,C   4,C   3,C   2)      0.00  0.000000   -0.00      0.00   
    46. D(H  10,C   4,C   3,H   9)     -0.00 -0.000003    0.01      0.01   
    47. D(H  11,C   5,C   4,H  10)      0.00 -0.000000    0.00      0.00   
    48. D(C   0,C   5,C   4,H  10)   -180.00  0.000001   -0.00   -180.00   
    49. D(C   0,C   5,C   4,C   3)      0.00  0.000000   -0.00     -0.00   
    50. D(H  11,C   5,C   0,H   6)      0.00  0.000000   -0.00     -0.00   
    51. D(H  11,C   5,C   0,C   1)    180.00  0.000001   -0.00    180.00   
    52. D(H  11,C   5,C   4,C   3)   -180.00 -0.000001    0.00   -180.00   
    53. D(C   4,C   5,C   0,H   6)   -180.00 -0.000001    0.00   -180.00   
    54. D(C   4,C   5,C   0,C   1)     -0.00 -0.000000    0.00      0.00   
    ----------------------------------------------------------------------------

Geometry step timings:
Preparation and reading OPT file:      0.000 s ( 1.012 %)
Internal coordinates            :      0.000 s ( 0.488 %)
B/P matrices and projection     :      0.000 s ( 7.954 %)
Hessian update/contruction      :      0.000 s ( 6.038 %)
Making the step                 :      0.004 s (70.011 %)
Converting the step to Cartesian:      0.000 s ( 3.073 %)
Storing new data                :      0.000 s ( 2.549 %)
Checking convergence            :      0.000 s ( 0.759 %)
Final printing                  :      0.000 s ( 8.044 %)
Total time                      :      0.006 s

Time for energy+gradient        :      7.750 s
Time for complete geometry iter :      8.144 s

         *************************************************************
         *                GEOMETRY OPTIMIZATION CYCLE   2            *
         *************************************************************
---------------------------------
CARTESIAN COORDINATES (ANGSTROEM)
---------------------------------
  C      0.805639   -1.143167   -0.008261
  C      1.392553    0.126141   -0.028214
  C      0.586922    1.269299   -0.019955
  C     -0.805640    1.143167    0.008259
  C     -1.392553   -0.126142    0.028214
  C     -0.586923   -1.269300    0.019957
  H      1.435679   -2.037108   -0.014770
  H      2.481543    0.224798   -0.050235
  H      1.045863    2.261871   -0.035502
  H     -1.435675    2.037110    0.014763
  H     -2.481543   -0.224798    0.050240
  H     -1.045863   -2.261872    0.035505

----------------------------
CARTESIAN COORDINATES (A.U.)
----------------------------
  NO LB      ZA    FRAG     MASS         X           Y           Z
   0 C     6.0000    0    12.011    1.522438   -2.160273   -0.015611
   1 C     6.0000    0    12.011    2.631543    0.238371   -0.053316
   2 C     6.0000    0    12.011    1.109122    2.398627   -0.037710
   3 C     6.0000    0    12.011   -1.522439    2.160272    0.015607
   4 C     6.0000    0    12.011   -2.631544   -0.238373    0.053317
   5 C     6.0000    0    12.011   -1.109124   -2.398628    0.037712
   6 H     1.0000    0     1.008    2.713039   -3.849576   -0.027911
   7 H     1.0000    0     1.008    4.689437    0.424806   -0.094931
   8 H     1.0000    0     1.008    1.976395    4.274316   -0.067088
   9 H     1.0000    0     1.008   -2.713033    3.849580    0.027898
  10 H     1.0000    0     1.008   -4.689437   -0.424806    0.094939
  11 H     1.0000    0     1.008   -1.976395   -4.274318    0.067095

--------------------------------
INTERNAL COORDINATES (ANGSTROEM)
--------------------------------
 C      0   0   0     0.000000000000     0.00000000     0.00000000
 C      1   0   0     1.398573612413     0.00000000     0.00000000
 C      2   1   0     1.398541785027   120.00127982     0.00000000
 C      3   2   1     1.398547241421   119.99902410     0.00000000
 C      4   3   2     1.398574055232   119.99969826     0.00000000
 C      5   4   3     1.398541561388   120.00127518     0.00000000
 H      1   2   3     1.093673442020   119.99940878   179.99701007
 H      2   1   3     1.093672217984   120.00079288   179.99758663
 H      3   2   1     1.093648710278   120.00193453   179.99663304
 H      4   3   2     1.093673428672   120.00063458   179.99727857
 H      5   4   3     1.093671503869   120.00074160   180.00230712
 H      6   5   4     1.093648782494   120.00198519   180.00337248

---------------------------
INTERNAL COORDINATES (A.U.)
---------------------------
 C      0   0   0     0.000000000000     0.00000000     0.00000000
 C      1   0   0     2.642921105589     0.00000000     0.00000000
 C      2   1   0     2.642860960546   120.00127982     0.00000000
 C      3   2   1     2.642871271637   119.99902410     0.00000000
 C      4   3   2     2.642921942395   119.99969826     0.00000000
 C      5   4   3     2.642860537930   120.00127518     0.00000000
 H      1   2   3     2.066743285360   119.99940878   179.99701007
 H      2   1   3     2.066740972268   120.00079288   179.99758663
 H      3   2   1     2.066696549142   120.00193453   179.99663304
 H      4   3   2     2.066743260136   120.00063458   179.99727857
 H      5   4   3     2.066739622786   120.00074160   180.00230712
 H      6   5   4     2.066696685609   120.00198519   180.00337248



           ************************************************************
           *        Program running with 8 parallel MPI-processes     *
           *              working on a common directory               *
           ************************************************************
------------------------------------------------------------------------------
                   ___                                                        
                  /   \      - P O W E R E D   B Y -                         
                 /     \                                                     
                 |  |  |   _    _      __       _____    __    __             
                 |  |  |  | |  | |    /  \     |  _  \  |  |  /  |          
                  \  \/   | |  | |   /    \    | | | |  |  | /  /          
                 / \  \   | |__| |  /  /\  \   | |_| |  |  |/  /          
                |  |  |   |  __  | /  /__\  \  |    /   |      \           
                |  |  |   | |  | | |   __   |  |    \   |  |\   \          
                \     /   | |  | | |  |  |  |  | |\  \  |  | \   \       
                 \___/    |_|  |_| |__|  |__|  |_| \__\ |__|  \__/        
                                                                              
                      - O R C A' S   B I G   F R I E N D -                    
                                      &                                       
                       - I N T E G R A L  F E E D E R -                       
                                                                              
 v1 FN, 2020, v2 2021, v3 2022-2024                                           
------------------------------------------------------------------------------


----------------------
SHARK INTEGRAL PACKAGE
----------------------

Number of atoms                             ...     12
Number of basis functions                   ...    114
Number of shells                            ...     54
Maximum angular momentum                    ...      2
Integral batch strategy                     ... SHARK/LIBINT Hybrid
RI-J (if used) integral strategy            ... SPLIT-RIJ (Revised 2003 algorithm where possible)
Printlevel                                  ...      1
Contraction scheme used                     ... SEGMENTED contraction
Prescreening option                         ... SCHWARTZ
   Thresh                                   ... 2.500e-11
   Tcut                                     ... 2.500e-12
   Tpresel                                  ... 2.500e-12 
Coulomb Range Separation                    ... NOT USED
Exchange Range Separation                   ... NOT USED
Multipole approximations                    ... NOT USED
Finite Nucleus Model                        ... NOT USED
CABS basis                                  ... NOT available
Auxiliary Coulomb fitting basis             ... AVAILABLE
   # of basis functions in Aux-J            ...    360
   # of shells in Aux-J                     ...    120
   Maximum angular momentum in Aux-J        ...      4
Auxiliary J/K fitting basis                 ... NOT available
Auxiliary Correlation fitting basis         ... NOT available
Auxiliary 'external' fitting basis          ... NOT available

Checking pre-screening integrals            ... done (  0.0 sec) Dimension = 54
   => SHARK Basis and OBASIS are compatible. Storing Pre-screening
Shell pair information
Shell pair cut-off parameter TPreSel        ...   2.5e-12
Total number of shell pairs                 ...      1485
Shell pairs after pre-screening             ...      1467
Total number of primitive shell pairs       ...      5349
Primitive shell pairs kept                  ...      4140
          la=0 lb=0:    456 shell pairs
          la=1 lb=0:    534 shell pairs
          la=1 lb=1:    168 shell pairs
          la=2 lb=0:    180 shell pairs
          la=2 lb=1:    108 shell pairs
          la=2 lb=2:     21 shell pairs

Checking whether 4 symmetric matrices of dimension 114 fit in memory
:Max Core in MB      =   6000.00
 MB in use           =      5.31
 MB left             =   5994.69
 MB needed           =      0.20
 Data fit in memory  = YES
Calculating RI/J V-Matrix + Cholesky decomp.... done (  0.0 sec)
Calculating Nuclear repulsion               ... done (  0.0 sec) ENN=    202.761008392695 Eh

Diagonalization of the overlap matrix:
Smallest eigenvalue                        ... 3.231e-04
Time for diagonalization                   ...    0.001 sec
Threshold for overlap eigenvalues          ... 1.000e-07
Number of eigenvalues below threshold      ... 0
Time for construction of square roots      ...    0.001 sec
Total time needed                          ...    0.004 sec

-------------------
DFT GRID GENERATION
-------------------

General Integration Accuracy     IntAcc      ... 4.388
Radial Grid Type                 RadialGrid  ... OptM3 with GC (2021)
Angular Grid (max. ang.)         AngularGrid ... 4 (Lebedev-302)
Angular grid pruning method      GridPruning ... 4 (adaptive)
Weight generation scheme         WeightScheme... mBecke (2022)
Basis function cutoff            BFCut       ... 1.0000e-11
Integration weight cutoff        WCut        ... 1.0000e-14
Partially contracted basis set               ... off
Rotationally invariant grid construction     ... off
Angular grids for H and He will be reduced by one unit

Total number of grid points                  ...    55502
Total number of batches                      ...      870
Average number of points per batch           ...       63
Average number of grid points per atom       ...     4625

--------------------
COSX GRID GENERATION
--------------------

GRIDX 1
-------
General Integration Accuracy     IntAcc      ... 3.816
Radial Grid Type                 RadialGrid  ... OptM3 with GC (2021)
Angular Grid (max. ang.)         AngularGrid ... 1 (Lebedev-50)
Angular grid pruning method      GridPruning ... 4 (adaptive)
Weight generation scheme         WeightScheme... mBecke (2022)
Basis function cutoff            BFCut       ... 1.0000e-11
Integration weight cutoff        WCut        ... 1.0000e-14
Partially contracted basis set               ... on
Rotationally invariant grid construction     ... off
Angular grids for H and He will be reduced by one unit

Total number of grid points                  ...     7122
Total number of batches                      ...       60
Average number of points per batch           ...      118
Average number of grid points per atom       ...      594
UseSFitting                                  ... on

GRIDX 2
-------
General Integration Accuracy     IntAcc      ... 4.020
Radial Grid Type                 RadialGrid  ... OptM3 with GC (2021)
Angular Grid (max. ang.)         AngularGrid ... 2 (Lebedev-110)
Angular grid pruning method      GridPruning ... 4 (adaptive)
Weight generation scheme         WeightScheme... mBecke (2022)
Basis function cutoff            BFCut       ... 1.0000e-11
Integration weight cutoff        WCut        ... 1.0000e-14
Partially contracted basis set               ... on
[...]
     19      -0.152159  -0.232562  -0.321357   0.034086  -0.263813   0.063096
     20       0.005287   0.008051   0.010236   0.002938   0.004834  -0.006433
     21      -0.023922   0.036438  -0.058615  -0.117833  -0.159414   0.081698
     22       0.262659  -0.401925  -0.364008   0.386498  -0.121310  -0.378965
     23      -0.001280   0.001940   0.003573  -0.000246   0.003946   0.000923
     24       0.238828   0.366629  -0.198144  -0.444614  -0.332643  -0.162279
     25      -0.110454  -0.169586  -0.037306   0.247439   0.202467  -0.112928
     26      -0.003926  -0.006039   0.004117   0.007057   0.005148   0.003934
     27      -0.216211   0.329891  -0.411242  -0.160371   0.156175  -0.303871
     28      -0.152229   0.232551  -0.321356   0.034086   0.263818  -0.063099
     29       0.005288  -0.008050   0.010234   0.002939  -0.004833   0.006432
     30      -0.023909  -0.036439  -0.058612  -0.117834   0.159417  -0.081698
     31       0.262543   0.401938  -0.364014   0.386508   0.121313   0.378966
     32      -0.001278  -0.001939   0.003572  -0.000245  -0.003946  -0.000922
     33       0.238942  -0.366613  -0.198137  -0.444616   0.332645   0.162282
     34      -0.110507   0.169578  -0.037309   0.247441  -0.202465   0.112925
     35      -0.003929   0.006038   0.004116   0.007056  -0.005148  -0.003933
                 30         31         32         33         34         35    
      0      -0.019678  -0.025109  -0.013666  -0.023373  -0.018603  -0.021575
      1       0.027883   0.033349   0.022996   0.036733   0.020863   0.030601
      2       0.000204   0.000274   0.000118   0.000217   0.000229   0.000222
      3       0.034039   0.043710  -0.022902  -0.045583   0.023619  -0.037243
      4       0.003064   0.002816  -0.004259  -0.005869  -0.001247  -0.003361
      5      -0.000688  -0.000876   0.000478   0.000933  -0.000455   0.000753
      6      -0.014120  -0.003058   0.020524   0.002378   0.021925  -0.015913
      7      -0.030534  -0.000769   0.044633  -0.003898   0.046977  -0.034411
      8       0.000478   0.000065  -0.000697  -0.000021  -0.000740   0.000539
      9      -0.019678   0.025107   0.013671  -0.023378  -0.018592   0.021580
     10       0.027881  -0.033345  -0.023002   0.036739   0.020847  -0.030606
     11       0.000204  -0.000274  -0.000118   0.000217   0.000228  -0.000222
     12       0.034046  -0.043714   0.022893  -0.045581   0.023628   0.037233
     13       0.003065  -0.002817   0.004258  -0.005869  -0.001246   0.003361
     14      -0.000688   0.000876  -0.000478   0.000933  -0.000455  -0.000753
     15      -0.014124   0.003054  -0.020524   0.002377   0.021929   0.015906
     16      -0.030541   0.000760  -0.044632  -0.003898   0.046984   0.034395
     17       0.000479  -0.000065   0.000697  -0.000021  -0.000740  -0.000539
     18       0.235272   0.280792   0.177130   0.276780   0.180780   0.233221
     19      -0.333813  -0.396334  -0.254692  -0.396796  -0.250276  -0.330930
     20      -0.002436  -0.002917  -0.001811  -0.002832  -0.001909  -0.002409
     21      -0.407239  -0.507678   0.268470   0.508574  -0.259500   0.402636
     22      -0.036856  -0.044914   0.026331   0.048019  -0.019671   0.036448
     23       0.008233   0.010257  -0.005441  -0.010295   0.005221  -0.008140
     24       0.169111   0.011763  -0.239990   0.007973  -0.242314   0.172231
     25       0.365748   0.020006  -0.519259   0.027458  -0.523551   0.372473
     26      -0.005730  -0.000363   0.008133  -0.000337   0.008208  -0.005836
     27       0.235265  -0.280762  -0.177181   0.276829   0.180655  -0.233264
     28      -0.333802   0.396292   0.254762  -0.396866  -0.250098   0.330990
     29      -0.002435   0.002916   0.001812  -0.002832  -0.001907   0.002409
     30      -0.407330   0.507725  -0.268360   0.508552  -0.259600  -0.402519
     31      -0.036864   0.044919  -0.026321   0.048017  -0.019680  -0.036438
     32       0.008234  -0.010257   0.005438  -0.010294   0.005223   0.008138
     33       0.169154  -0.011720   0.239986   0.007977  -0.242348  -0.172153
     34       0.365837  -0.019913   0.519249   0.027467  -0.523622  -0.372302
     35      -0.005732   0.000362  -0.008133  -0.000337   0.008209   0.005834


-----------
IR SPECTRUM
-----------

 Mode   freq       eps      Int      T**2         TX        TY        TZ
       cm**-1   L/(mol*cm) km/mol    a.u.
----------------------------------------------------------------------------
  6:    417.89   0.000000    0.00  0.000000  ( 0.000005  0.000006 -0.000056)
  7:    418.90   0.000000    0.00  0.000000  ( 0.000008 -0.000000  0.000087)
  8:    620.45   0.000000    0.00  0.000000  (-0.000000 -0.000000  0.000000)
  9:    620.65   0.000000    0.00  0.000000  ( 0.000000 -0.000000 -0.000000)
 10:    694.08   0.015964   80.67  0.007177  ( 0.001658  0.000546  0.084702)
 11:    733.87   0.000000    0.00  0.000000  (-0.000000  0.000000  0.000001)
 12:    870.53   0.000000    0.00  0.000000  (-0.000000  0.000000 -0.000000)
 13:    870.87   0.000000    0.00  0.000000  ( 0.000000  0.000000  0.000001)
 14:   1004.10   0.000000    0.00  0.000000  ( 0.000008 -0.000009 -0.000009)
 15:   1004.60   0.000000    0.00  0.000000  ( 0.000002  0.000001 -0.000003)
 16:   1014.35   0.000000    0.00  0.000000  (-0.000014  0.000029  0.000000)
 17:   1018.69   0.000000    0.00  0.000000  (-0.000001 -0.000000  0.000000)
 18:   1040.01   0.000000    0.00  0.000000  (-0.000000  0.000000  0.000000)
 19:   1057.58   0.000909    4.59  0.000268  (-0.013944 -0.008577  0.000332)
 20:   1057.70   0.000905    4.57  0.000267  (-0.008538  0.013931  0.000072)
 21:   1161.66   0.000000    0.00  0.000000  ( 0.000017  0.000060  0.000003)
 22:   1183.71   0.000000    0.00  0.000000  (-0.000000  0.000000  0.000000)
 23:   1183.89   0.000000    0.00  0.000000  ( 0.000000 -0.000000  0.000000)
 24:   1363.42   0.000000    0.00  0.000000  (-0.000021  0.000047  0.000003)
 25:   1365.77   0.000000    0.00  0.000000  ( 0.000000 -0.000000  0.000000)
 26:   1508.79   0.001451    7.33  0.000300  (-0.011703 -0.012769  0.000316)
 27:   1508.94   0.001446    7.31  0.000299  (-0.012718  0.011713  0.000176)
 28:   1650.63   0.000000    0.00  0.000000  ( 0.000000  0.000000  0.000000)
 29:   1650.67   0.000000    0.00  0.000000  ( 0.000000  0.000000  0.000000)
 30:   3162.15   0.000000    0.00  0.000000  ( 0.000121  0.000150 -0.000004)
 31:   3171.72   0.000000    0.00  0.000000  (-0.000002 -0.000001  0.000000)
 32:   3171.95   0.000000    0.00  0.000000  (-0.000001 -0.000001  0.000000)
 33:   3186.19   0.006289   31.78  0.000616  (-0.022973  0.009384  0.000381)
 34:   3186.40   0.006271   31.69  0.000614  ( 0.009356  0.022946 -0.000329)
 35:   3195.60   0.000000    0.00  0.000000  (-0.000002 -0.000003  0.000000)

* The epsilon (eps) is given for a Dirac delta lineshape.
** The dipole moment derivative (T) already includes vibrational overlap.

The first frequency considered to be a vibration is 6
The total number of vibrations considered is 30


--------------------------
THERMOCHEMISTRY AT 298.15K
--------------------------

Temperature         ...   298.15 K
Pressure            ...     1.00 atm
Total Mass          ...    78.11 AMU
Quasi RRHO          ...     True
Cut-Off Frequency   ...     1.00 cm^-1

Throughout the following assumptions are being made:
  (1) The electronic state is orbitally nondegenerate
  (2) There are no thermally accessible electronically excited states
  (3) Hindered rotations indicated by low frequency modes are not
      treated as such but are treated as vibrations and this may
      cause some error
  (4) All equations used are the standard statistical mechanics
      equations for an ideal gas
  (5) All vibrations are strictly harmonic

freq.     417.89  E(vib)   ...       0.18 
freq.     418.90  E(vib)   ...       0.18 
freq.     620.45  E(vib)   ...       0.09 
freq.     620.65  E(vib)   ...       0.09 
freq.     694.08  E(vib)   ...       0.07 
freq.     733.87  E(vib)   ...       0.06 
freq.     870.53  E(vib)   ...       0.04 
freq.     870.87  E(vib)   ...       0.04 
freq.    1004.10  E(vib)   ...       0.02 
freq.    1004.60  E(vib)   ...       0.02 
freq.    1014.35  E(vib)   ...       0.02 
freq.    1018.69  E(vib)   ...       0.02 
freq.    1040.01  E(vib)   ...       0.02 
freq.    1057.58  E(vib)   ...       0.02 
freq.    1057.70  E(vib)   ...       0.02 
freq.    1161.66  E(vib)   ...       0.01 
freq.    1183.71  E(vib)   ...       0.01 
freq.    1183.89  E(vib)   ...       0.01 
freq.    1363.42  E(vib)   ...       0.01 
freq.    1365.77  E(vib)   ...       0.01 
freq.    1508.79  E(vib)   ...       0.00 
freq.    1508.94  E(vib)   ...       0.00 
freq.    1650.63  E(vib)   ...       0.00 
freq.    1650.67  E(vib)   ...       0.00 
freq.    3162.15  E(vib)   ...       0.00 
freq.    3171.72  E(vib)   ...       0.00 
freq.    3171.95  E(vib)   ...       0.00 
freq.    3186.19  E(vib)   ...       0.00 
freq.    3186.40  E(vib)   ...       0.00 
freq.    3195.60  E(vib)   ...       0.00 

------------
INNER ENERGY
------------

The inner energy is: U= E(el) + E(ZPE) + E(vib) + E(rot) + E(trans)
    E(el)   - is the total energy from the electronic structure calculation
              = E(kin-el) + E(nuc-el) + E(el-el) + E(nuc-nuc)
    E(ZPE)  - the the zero temperature vibrational energy from the frequency calculation
    E(vib)  - the the finite temperature correction to E(ZPE) due to population
              of excited vibrational states
    E(rot)  - is the rotational thermal energy
    E(trans)- is the translational thermal energy

Summary of contributions to the inner energy U:
Electronic energy                ...   -231.93073497 Eh
Zero point energy                ...      0.10045755 Eh      63.04 kcal/mol
Thermal vibrational correction   ...      0.00153652 Eh       0.96 kcal/mol
Thermal rotational correction    ...      0.00141627 Eh       0.89 kcal/mol
Thermal translational correction ...      0.00141627 Eh       0.89 kcal/mol
-----------------------------------------------------------------------
Total thermal energy                   -231.82590836 Eh


Summary of corrections to the electronic energy:
(perhaps to be used in another calculation)
Total thermal correction                  0.00436906 Eh       2.74 kcal/mol
Non-thermal (ZPE) correction              0.10045755 Eh      63.04 kcal/mol
-----------------------------------------------------------------------
Total correction                          0.10482661 Eh      65.78 kcal/mol


--------
ENTHALPY
--------

The enthalpy is H = U + kB*T
                kB is Boltzmann's constant
Total thermal energy              ...   -231.82590836 Eh 
Thermal Enthalpy correction       ...      0.00094421 Eh       0.59 kcal/mol
-----------------------------------------------------------------------
Total Enthalpy                    ...   -231.82496415 Eh


Note: Rotational entropy computed according to Herzberg 
Infrared and Raman Spectra, Chapter V,1, Van Nostrand Reinhold, 1945 
Point Group:  D6h, Symmetry Number:  12  
Rotational constants in cm-1:     0.188736     0.188726     0.094365 

Vibrational entropy computed according to the QRRHO of S. Grimme
Chem.Eur.J. 2012 18 9955 using a reference frequency of 100.0 cm-1


-------
ENTROPY
-------

The entropy contributions are T*S = T*(S(el)+S(vib)+S(rot)+S(trans))
     S(el)   - electronic entropy
     S(vib)  - vibrational entropy
     S(rot)  - rotational entropy
     S(trans)- translational entropy
The entropies will be listed as multiplied by the temperature to get
units of energy

Electronic entropy                ...      0.00000000 Eh      0.00 kcal/mol
Vibrational entropy               ...      0.00205604 Eh      1.29 kcal/mol
Rotational entropy                ...      0.00985338 Eh      6.18 kcal/mol
Translational entropy             ...      0.01852142 Eh     11.62 kcal/mol
-----------------------------------------------------------------------
Final entropy term                ...      0.03043083 Eh     19.10 kcal/mol

In case the symmetry of your molecule has not been determined correctly
or in case you have a reason to use a different symmetry number we print 
out the resulting rotational entropy values for sn=1,12:

 non-linear molecules -----------------------------------
|  sn= 1 | S(rot)=       0.01219958 Eh      7.66 kcal/mol|
|  sn= 2 | S(rot)=       0.01154512 Eh      7.24 kcal/mol|
|  sn= 3 | S(rot)=       0.01116229 Eh      7.00 kcal/mol|
|  sn= 4 | S(rot)=       0.01089067 Eh      6.83 kcal/mol|
|  sn= 5 | S(rot)=       0.01067998 Eh      6.70 kcal/mol|
|  sn= 6 | S(rot)=       0.01050783 Eh      6.59 kcal/mol|
|  sn= 7 | S(rot)=       0.01036229 Eh      6.50 kcal/mol|
|  sn= 8 | S(rot)=       0.01023621 Eh      6.42 kcal/mol|
|  sn= 9 | S(rot)=       0.01012500 Eh      6.35 kcal/mol|
|  sn=10 | S(rot)=       0.01002552 Eh      6.29 kcal/mol|
|  sn=11 | S(rot)=       0.00993553 Eh      6.23 kcal/mol|
|  sn=12 | S(rot)=       0.00985338 Eh      6.18 kcal/mol|
 linear molecules ---------------------------------------
|  Dinfh | S(rot)=       0.00755462 Eh      4.74 kcal/mol|
|  Cinfv | S(rot)=       0.00820908 Eh      5.15 kcal/mol|
 --------------------------------------------------------


-------------------
GIBBS FREE ENERGY
-------------------

The Gibbs free energy is G = H - T*S

Total enthalpy                    ...   -231.82496415 Eh 
Total entropy correction          ...     -0.03043083 Eh    -19.10 kcal/mol
-----------------------------------------------------------------------
Final Gibbs free energy         ...   -231.85539498 Eh

For completeness - the Gibbs free energy minus the electronic energy
G-E(el)                           ...      0.07533999 Eh     47.28 kcal/mol


Maximum memory used throughout the entire PROP-calculation: 28.3 MB

--------------------------------
SUGGESTED CITATIONS FOR THIS RUN
--------------------------------

Below you find a list of papers that are relevant to this ORCA run
We neither can nor want to force you to cite these papers, but we appreciate if you do
You receive ORCA, which is the product of decades of hard work by many enthusiastic individuals, for free
The only thing we kindly ask in return is that you cite our papers,
We deeply appreciate it, if you show your appreciation for ORCA by not just citing the generic ORCA reference.

Please note that relegating all ORCA citations to the supporting information does *not* help us.
SI sections are not indexed - citations you put there will not count into any citation statistics
But we need these citations in order to attract the funding resources that allow us to do what we are doing

Therefore, if you are a happy ORCA user, please consider citing a few of the papers listed below in the main body of your paper

In addition to the list printed below, the program has created the file benzene-opt.bibtex that contains the list in bibtex format
You can import this file easily into all common literature databanks and citation aid programs

It goes without saying that in many instances, there are alternative algorithms to achieve similar
results as the ones you have gotten from ORCA. It is, of course, also the case that in some instances
ORCA just re-implements algorithms worked out by others. We are fully aware of that and we are also
fully appreciative of our colleagues work. Hence this citation list should not be read as indicating
that the listed papers, which are focused on our own work, are the only ones worth citing. It simply
meant to make it easier for users to cite ORCA specific papers. It is not a substitute for doing your
own literature research and citing the relevant literature in a scientifically appropriate manner.

List of essential papers. We consider these as the minimum necessary citations

  1. Neese, F.
     Software update: the ORCA program system, version 6.0
     WIRES Comput. Molec. Sci. 2025 15(1), e70019
     doi.org/10.1002/wcms.70019

List of papers to cite with high priority. The work reported in these papers was absolutely
necessary for this run to complete.
Our perspective: the developers of density functionals and basis sets usually get cited in chemistry papers
Good! But without the algorithms to do something with them, the functionals or basis sets would not do anything.
Hence, in our opinion, the algorithm design and method developments papers are equally worthy of getting cited

  1. Neese, F.
     An improvement of the resolution of the identity approximation for the formation of the Coulomb matrix
     J. Comp. Chem. 2003 24(14), 1740-1747
     doi.org/10.1002/jcc.10318
  2. Neese, F.; Wennmohs, F.; Hansen, A.; Becker, U.
     Efficient, approximate and parallel Hartree-Fock and hybrid DFT calculations. A 'chain-of-spheres' algorithm for the Hartree-Fock exchange
     Chem. Phys. 2009 356(1-3), 98-109
     doi.org/10.1016/j.chemphys.2008.10.036
  3. Bykov, D.; Petrenko, T.; Izsak, R.; Kossmann, S.; Becker, U.; Valeev, E.; Neese, F.
     Efficient implementation of the analytic second derivatives of Hartree-Fock and hybrid DFT energies: a detailed analysis of different approximations
     Molec. Phys. 2015 113 , 1961-1977
     doi.org/10.1080/00268976.2015.1025114
  4. Helmich-Paris, B.; de Souza, B.; Neese, F.; Izsák, R.
     An improved chain of spheres for exchange algorithm
     J. Chem. Phys. 2021 155(10), 104109
     doi.org/10.1063/5.0058766
  5. Neese, F.
     The SHARK Integral Generation and Digestion System
     J. Comp. Chem. 2022 44(3), 381
     doi.org/10.1002/jcc.26942

List of suggested additional citations. These are papers that are important in the 'surrounding' of 
of this run, or papers that preceded the highly important papers. If you like your results we are grateful for a citation.

  1. Izsak, R.; Neese, F.
     An overlap fitted chain of spheres exchange method
     J. Chem. Phys. 2011 135 , 144105
     doi.org/10.1063/1.3646921
  2. Izsak, R.; Hansen, A.; Neese, F.
     The resolution of identity and chain of spheres approximations for the LPNO-CCSD singles Fock term
     Molec. Phys. 2012 110 , 2413-2417
     doi.org/10.1080/00268976.2012.687466
  3. Neese, F.
     The ORCA program system
     WIRES Comput. Molec. Sci. 2012 2(1), 73-78
     doi.org/10.1002/wcms.81
  4. Izsak, R.; Neese, F.; Klopper, W.
     Robust fitting techniques in the chain of spheres approximation to the Fock exchange: The role of the complementary space
     J. Chem. Phys. 2013 139 , 
     doi.org/10.1063/1.4819264
  5. Neese, F.
     Software update: the ORCA program system, version 4.0
     WIRES Comput. Molec. Sci. 2018 8(1), 1-6
     doi.org/10.1002/wcms.1327
  6. Neese, F.; Wennmohs, F.; Becker, U.; Riplinger, C.
     The ORCA quantum chemistry program package
     J. Chem. Phys. 2020 152(22), 224108
     doi.org/10.1063/5.0004608
  7. Neese, F.
     Software update: The ORCA program system—Version 5.0
     WIRES Comput. Molec. Sci. 2022 12(1), e1606
     doi.org/10.1002/wcms.1606

List of optional additional citations

  1. Neese, F.
     Approximate second-order SCF convergence for spin unrestricted wavefunctions
     Chem. Phys. Lett. 2000 325(1-3), 93-98
     doi.org/10.1016/s0009-2614(00)00662-x

Timings for individual modules:

Sum of individual times          ...       52.302 sec (=   0.872 min)
Startup calculation              ...        3.016 sec (=   0.050 min)   5.8 %
SCF iterations                   ...        8.864 sec (=   0.148 min)  16.9 %
Property integrals               ...        8.650 sec (=   0.144 min)  16.5 %
SCF Response                     ...        5.985 sec (=   0.100 min)  11.4 %
Property calculations            ...       21.050 sec (=   0.351 min)  40.2 %
SCF Gradient evaluation          ...        4.710 sec (=   0.079 min)   9.0 %
Geometry relaxation              ...        0.026 sec (=   0.000 min)   0.1 %
                             ****ORCA TERMINATED NORMALLY****
TOTAL RUN TIME: 0 days 0 hours 0 minutes 53 seconds 906 msec
