
                                 *****************
                                 * O   R   C   A *
                                 *****************

                                            #,                                       
                                            ###                                      
                                            ####                                     
                                            #####                                    
                                            ######                                   
                                           ########,                                 
                                     ,,################,,,,,                         
                               ,,#################################,,                 
                          ,,##########################################,,             
                       ,#########################################, ''#####,          
                    ,#############################################,,   '####,        
                  ,##################################################,,,,####,       
                ,###########''''           ''''###############################       
              ,#####''   ,,,,##########,,,,          '''####'''          '####       
            ,##' ,,,,###########################,,,                        '##       
           ' ,,###''''                  '''############,,,                           
         ,,##''                                '''############,,,,        ,,,,,,###''
      ,#''                                            '''#######################'''  
     '                                                          ''''####''''         
             ,#######,   #######,   ,#######,      ##                                
            ,#'     '#,  ##    ##  ,#'     '#,    #''#        ,####,    ,#,          
            ##       ##  ##   ,#'  ##            #'  '#       #'       ,# #          
            ##       ##  #######   ##           ,######,      #####,      #          
            '#,     ,#'  ##    ##  '#,     ,#' ,#      #,     #,   #      #          
             '#######'   ##     ##  '#######'  #'      '#     '####' #    #          



                #########################################################
                #                        -***-                          #
                #          Department of theory and spectroscopy        #
                #                                                       #
                #                      Frank Neese                      #
                #                                                       #
                #     Directorship, Architecture, Infrastructure        #
                #                    SHARK, DRIVERS                     #
                #        Core code/Algorithms in most modules           #
                #                                                       #
                #        Max Planck Institute fuer Kohlenforschung      #
                #                Kaiser Wilhelm Platz 1                 #
                #                 D-45470 Muelheim/Ruhr                 #
                #                      Germany                          #
                #                                                       #
                #                  All rights reserved                  #
                #                        -***-                          #
                #########################################################


                         Program Version 6.1.1  -  RELEASE   -
                                (GIT: $487d211c$)
                          ($2025-11-21 10:33:24 +0100$)


 With contributions from (in alphabetic order):
[Max-Planck-Institut fuer Kohlenforschung]                               
  Daniel Aravena         : Magnetic Suceptibility                        
  Michael Atanasov       : Ab Initio Ligand Field Theory (pilot matlab implementation)
  Alexander A. Auer      : GIAO ZORA, VPT2 properties, NMR spectrum      
  Ute Becker             : All parallelization in ORCA, NUMFREQ, NUMCALC 
  Giovanni Bistoni       : ED, misc. LED, open-shell LED, HFLD           
  Dmytro Bykov           : pre 5.0 version of the SCF Hessian            
  Marcos Casanova-Páez   : Triplet and SCS-CIS(D). UHF-(DLPNO)-IP/EA/STEOM-CCSD. UHF-CVS-IP/STEOM-CCSD   
  Vijay G. Chilkuri      : MRCI spin determinant printing, contributions to CSF-ICE 
  Pauline Colinet        : FMM embedding                                 
  Dipayan Datta          : RHF DLPNO-CCSD density                        
  Achintya Kumar Dutta   : EOM-CC, STEOM-CC                              
  Nicolas Foglia         : Exact transition moments, OPA infrastructure, MCD improvements    
  Dmitry Ganyushin       : Spin-Orbit,Spin-Spin,Magnetic field MRCI      
  Miquel Garcia-Rates    : C-PCM and meta-GGA Hessian, CCSD/C-PCM, Gaussian charge scheme 
  Tiago L. C. Gouveia    : GS-ROHF, GS-ROCIS                             
  Yang Guo               : DLPNO-NEVPT2, F12-NEVPT2, CIM, IAO-localization        
  Andreas Hansen         : Spin unrestricted coupled pair/coupled cluster methods 
  Ingolf Harden          : AUTO-CI MPn and infrastructure                
  Benjamin Helmich-Paris : MC-RPA, TRAH-(SCF,CASSCF), AVAS, COSX integrals, SCF dyn. polar., MC-PDFT, srDFT 
  Lee Huntington         : MR-EOM, pCC                                   
  Robert Izsak           : Overlap fitted RIJCOSX, COSX-SCS-MP3, EOM     
  Riya Kayal             : Wick's Theorem for AUTO-CI, AUTO-CI UHF-CCSDT 
  Emily Kempfer          : AUTO-CI RHF CISDT and CCSDT, approximate NEVPT4
  Christian Kollmar      : KDIIS, OOCD, Brueckner-CCSD(T), CCSD density, CASPT2, CASPT2-K, improved NEVPT2 
  Axel Koslowski         : Symmetry handling                             
  Simone Kossmann        : meta-GGA functionals, TD-DFT gradient, OOMP2, (MP2 Hessian; deprecated post 5.0) 
  Lucas Lang             : DCDCAS, Hyperfine gauge corrections, ICE-SOC+SSC
  Marvin Lechner         : AUTO-CI (C++ implementation), FIC-MRCC        
  Spencer Leger          : CASSCF response                               
  Dagmar Lenk            : GEPOL surface, SMD, ORCA-2-JSON               
  Dimitrios Liakos       : Extrapolation schemes; Compound Job, Property file
  Dimitrios Manganas     : Further ROCIS development; embedding schemes. LFT, Crystal Embedding 
  Dimitrios Pantazis     : SARC Basis sets                               
  Anastasios Papadopoulos: AUTO-CI, single reference methods and gradients 
  Taras Petrenko         : pre 6.0 DFT Hessian and TD-DFT gradient,  ECA, NRVS 
  Petra Pikulova         : Analytic Raman intensities                    
  Peter Pinski           : DLPNO-MP2, DLPNO-MP2 Gradient                 
  Shashank Vittal Rao    : ES-AILFT, MagRelax                            
  Christoph Reimann      : Effective Core Potentials                     
  Marius Retegan         : Local ZFS, SOC                                
  Christoph Riplinger    : Optimizer, TS searches, QM/MM, DLPNO-CCSD(T), (RO)-DLPNO pert. Triples 
  Michael Roemelt        : Original ROCIS implementation, recursive CI coupling coefficients
  Masaaki Saitow         : Open-shell DLPNO-CCSD energy and density      
  Barbara Sandhoefer     : DKH picture change effects                    
  Yorick L. A. Schmerwitz: GMF and freeze-and-release deltaSCF, NEB S-IDPP initial path                    
  Kantharuban Sivalingam : CASSCF convergence/infrastructure, NEVPT2, NEVPT3, NEVPT4(SD), FIC-MRCI and CEPA variants
  Bernardo de Souza      : ESD, SOC TD-DFT                               
  Georgi L. Stoychev     : AutoAux, RI-MP2 NMR, DLPNO-MP2 response, X2C  
  Van Anh Tran           : RI-MP2 g-tensors                              
  Willem Van den Heuvel  : Paramagnetic NMR                              
  Zikuan Wang            : NOTCH, Electric field optimization            
  Frank Wennmohs         : Technical directorship and infrastructure     
  Hang Xu                : AUTO-CI-Response properties                   
                                                                         
[FACCTs GmbH]                                                            
  Markus Bursch, Nicolas Foglia, Miquel Garcia-Rates, Ingolf Harden, Hagen Neugebauer, Anastasios Papadopoulos, 
  Christoph Riplinger, Bernardo de Souza, Georgi L. Stoychev                                                    
                                                                 
  APM, various basis sets, CI-OPT, improved COSX, DLPNO-Multilevel,           
  DOCKER, DRACO, updates on ESD, Fragmentator, GOAT, IRC, LR-CPCM, L-BFGS, MBIS, meta-GGA TD-DFT gradient, ML-optimized integration grids, 
  MM, NACMEs, nearIR, NEB, NEB-TS, NL-DFT gradient (VV10), 2- and 3-layer-ONIOM, interface openCOSMO-RS, QMMM,   
  Crystal-QMMM, RESP, rigid body optimization, SF, symmetry and pop. for TD-DFT, various functionals, SOLVATOR                                   
                                                                         
[Other institutions]                                                     
  V. Asgeirsson          : NEB                                           
  Christoph Bannwarth    : sTDA-DFT, sTD-DFT, PBEh-3c, B97-3c, D3        
  Giovanni Bistoni       : ETS/NOCV, ADLD/ADEX, COVALED                  
  Martin Brehm           : Molecular dynamics                            
  Ronald Cardenas        : ETS/NOCV                                      
  Martina Colucci        : COVALED                                       
  Sebastian Ehlert       : rSCAN, r2SCAN, r2SCAN-3c, D4, dhf basis sets  
  Marvin Friede          : D4 for Fr, Ra, Ac-Lr                          
  Lars Goerigk           : TD-DFT with DH, B97 family of functionals     
  Stefan Grimme          : VdW corrections, initial TS optimization, DFT functionals, gCP, sTDA/sTD-DF 
  Waldemar Hujo          : DFT-NL                                        
  H. Jonsson             : NEB                                           
  Holger Kruse           : gCP                                           
  Marcel Mueller         : wB97X-3c, vDZP basis set                      
  Hagen Neugebauer       : wr2SCAN, Native XTB                           
  Gianluca Regni         : ADLD/ADEX                                     
  Tobias Risthaus        : pre 6.0 range-separated hybrid DFT and stability analysis
  Lukas Wittmann         : regularized MP2, r2SCAN double-hybrids, wr2SCAN        
                                                                         
We gratefully acknowledge several colleagues who have allowed us to      
interface, adapt or use parts of their codes:                            
  Ed Valeev, F. Pavosevic, A. Kumar             : LibInt (2-el integral package), F12 methods 
  Garnet Chan, S. Sharma, J. Yang, R. Olivares  : DMRG                   
  Ulf Ekstrom                                   : XCFun DFT Library      
  Mihaly Kallay                                 : mrcc  (arbitrary order and MRCC methods)
  Frank Weinhold                                : gennbo (NPA and NBO analysis)           
  Simon Mueller                                 : openCOSMO-RS                            
  Christopher J. Cramer and Donald G. Truhlar   : smd solvation model                     
  S Lehtola, MJT Oliveira, MAL Marques          : LibXC Library                           
  Liviu Ungur et al                             : ANISO software                          


 Your calculation uses the libint2 library for the computation of 2-el integrals
 For citations please refer to: http://libint.valeyev.net

 Your ORCA version has been built with support for libXC version: 7.0.0
 For citations please refer to: https://libxc.gitlab.io

 This ORCA versions uses:
   CBLAS   interface :  Fast vector & matrix operations
   LAPACKE interface :  Fast linear algebra routines
   SCALAPACK package :  Parallel linear algebra routines
   Shared memory     :  Shared parallel matrices
   BLAS/LAPACK       :  OpenBLAS 0.3.29  USE64BITINT DYNAMIC_ARCH NO_AFFINITY Cooperlake SINGLE_THREADED
        Core in use  :  Cooperlake
   Copyright (c) 2011-2014, The OpenBLAS Project


  ***********************************
  * Starting time: Thu Apr 23 06:35:51 2026
  * Host name:     DESKTOP-DC1WS01
  * Process ID:    367078
  * Working dir.:  /mnt/work-disk/work/test/benzene-opt-nmr.res
  ***********************************

NOTE: MaxCore=2000 MB was set to SCF,MP2,MDCI,CIPSI,MRCI,RASCI and CIS
      => If you want to overwrite this, your respective input block should be placed after the MaxCore statement

Information: The global flag for NMR shieldings has been found
             ==>> will calculate the shieldings for all atoms in the system

Warning: RI is on but no J-basis has been assigned. Assigning Def2/J (nothing to worry about!)
================================================================================

----- Orbital basis set information -----
Your calculation utilizes the basis: def2-SVP
   F. Weigend and R. Ahlrichs, Phys. Chem. Chem. Phys. 7, 3297 (2005).

----- AuxJ basis set information -----
Your calculation utilizes the auxiliary basis: def2/J
   H-Rn: F. Weigend, Phys. Chem. Chem. Phys. 8, 1057 (2006).
   Fr-Lr: K. Eichkorn, F. Weigend, O. Treutler, R. Ahlrichs; Theor. Chem. Acc. 97, 119 (1997).

================================================================================
                                        WARNINGS
                       Please study these warnings very carefully!
================================================================================


================================================================================
                                       INPUT FILE
================================================================================
NAME = benzene-opt-nmr.inp
|  1> # Generated by MoleditPy ORCA Input Generator Pro Plugin
|  2> %pal nprocs 4 end
|  3> %maxcore 2000
|  4> 
|  5> ! B3LYP def2-SVP NMR
|  6> 
|  7> * xyz 0 1
|  8>   C        0.805933    -1.143600    -0.008261
|  9>   C        1.393065     0.126183    -0.028226
| 10>   C        0.587147     1.269771    -0.019965
| 11>   C       -0.805933     1.143599     0.008262
| 12>   C       -1.393065    -0.126184     0.028225
| 13>   C       -0.587147    -1.269772     0.019964
| 14>   H        1.435961    -2.037509    -0.014772
| 15>   H        2.482025     0.224848    -0.050244
| 16>   H        1.046066     2.262320    -0.035512
| 17>   H       -1.435958     2.037511     0.014773
| 18>   H       -2.482026    -0.224847     0.050244
| 19>   H       -1.046065    -2.262321     0.035513
| 20> *
| 21> 
| 22>                          ****END OF INPUT****
================================================================================

                       ****************************
                       * Single Point Calculation *
                       ****************************

---------------------------------
CARTESIAN COORDINATES (ANGSTROEM)
---------------------------------
  C      0.805933   -1.143600   -0.008261
  C      1.393065    0.126183   -0.028226
  C      0.587147    1.269771   -0.019965
  C     -0.805933    1.143599    0.008262
  C     -1.393065   -0.126184    0.028225
  C     -0.587147   -1.269772    0.019964
  H      1.435961   -2.037509   -0.014772
  H      2.482025    0.224848   -0.050244
  H      1.046066    2.262320   -0.035512
  H     -1.435958    2.037511    0.014773
  H     -2.482026   -0.224847    0.050244
  H     -1.046065   -2.262321    0.035513

----------------------------
CARTESIAN COORDINATES (A.U.)
----------------------------
  NO LB      ZA    FRAG     MASS         X           Y           Z
   0 C     6.0000    0    12.011    1.522993   -2.161091   -0.015611
   1 C     6.0000    0    12.011    2.632511    0.238451   -0.053339
   2 C     6.0000    0    12.011    1.109547    2.399519   -0.037728
   3 C     6.0000    0    12.011   -1.522993    2.161089    0.015613
   4 C     6.0000    0    12.011   -2.632511   -0.238453    0.053338
   5 C     6.0000    0    12.011   -1.109547   -2.399521    0.037726
   6 H     1.0000    0     1.008    2.713573   -3.850334   -0.027915
   7 H     1.0000    0     1.008    4.690348    0.424901   -0.094947
   8 H     1.0000    0     1.008    1.976778    4.275165   -0.067108
   9 H     1.0000    0     1.008   -2.713567    3.850338    0.027917
  10 H     1.0000    0     1.008   -4.690349   -0.424899    0.094947
  11 H     1.0000    0     1.008   -1.976776   -4.275167    0.067110

--------------------------------
INTERNAL COORDINATES (ANGSTROEM)
--------------------------------
 C      0   0   0     0.000000000000     0.00000000     0.00000000
 C      1   0   0     1.399096656324     0.00000000     0.00000000
 C      2   1   0     1.399058819560   120.00183076     0.00000000
 C      3   2   1     1.399066840259   119.99879147     0.00000000
 C      4   3   2     1.399096627786   119.99937653     0.00000000
 C      5   4   3     1.399058819560   120.00183200     0.00000000
 H      1   2   3     1.093641154212   119.99896310   179.99683510
 H      2   1   3     1.093642288936   120.00131259   179.99717922
 H      3   2   1     1.093618706484   120.00299060   179.99645890
 H      4   3   2     1.093641878080   120.00144008   179.99683026
 H      5   4   3     1.093643124356   120.00120254   180.00278728
 H      6   5   4     1.093618315285   120.00303657   180.00332439

---------------------------
INTERNAL COORDINATES (A.U.)
---------------------------
 C      0   0   0     0.000000000000     0.00000000     0.00000000
 C      1   0   0     2.643909515338     0.00000000     0.00000000
 C      2   1   0     2.643838014216   120.00183076     0.00000000
 C      3   2   1     2.643853171141   119.99879147     0.00000000
 C      4   3   2     2.643909461408   119.99937653     0.00000000
 C      5   4   3     2.643838014216   120.00183200     0.00000000
 H      1   2   3     2.066682270246   119.99896310   179.99683510
 H      2   1   3     2.066684414564   120.00131259   179.99717922
 H      3   2   1     2.066639850187   120.00299060   179.99645890
 H      4   3   2     2.066683638158   120.00144008   179.99683026
 H      5   4   3     2.066685993279   120.00120254   180.00278728
 H      6   5   4     2.066639110928   120.00303657   180.00332439

---------------------
BASIS SET INFORMATION
---------------------
There are 2 groups of distinct atoms

 Group   1 Type C   : 7s4p1d contracted to 3s2p1d pattern {511/31/1}
 Group   2 Type H   : 4s1p contracted to 2s1p pattern {31/1}

Atom   0C    basis set group =>   1
Atom   1C    basis set group =>   1
Atom   2C    basis set group =>   1
Atom   3C    basis set group =>   1
Atom   4C    basis set group =>   1
Atom   5C    basis set group =>   1
Atom   6H    basis set group =>   2
Atom   7H    basis set group =>   2
Atom   8H    basis set group =>   2
Atom   9H    basis set group =>   2
Atom  10H    basis set group =>   2
Atom  11H    basis set group =>   2
---------------------------------
AUXILIARY/J BASIS SET INFORMATION
---------------------------------
There are 2 groups of distinct atoms

 Group   1 Type C   : 12s5p4d2f1g contracted to 6s4p3d1f1g pattern {711111/2111/211/2/1}
 Group   2 Type H   : 5s2p1d contracted to 3s1p1d pattern {311/2/1}

Atom   0C    basis set group =>   1
Atom   1C    basis set group =>   1
Atom   2C    basis set group =>   1
Atom   3C    basis set group =>   1
Atom   4C    basis set group =>   1
Atom   5C    basis set group =>   1
Atom   6H    basis set group =>   2
Atom   7H    basis set group =>   2
Atom   8H    basis set group =>   2
Atom   9H    basis set group =>   2
Atom  10H    basis set group =>   2
Atom  11H    basis set group =>   2


           ************************************************************
           *        Program running with 4 parallel MPI-processes     *
           *              working on a common directory               *
           ************************************************************
------------------------------------------------------------------------------
                             ORCA STARTUP CALCULATIONS
                           -- RI-GTO INTEGRALS CHOSEN --
------------------------------------------------------------------------------
------------------------------------------------------------------------------
                   ___                                                        
                  /   \      - P O W E R E D   B Y -                         
                 /     \                                                     
                 |  |  |   _    _      __       _____    __    __             
                 |  |  |  | |  | |    /  \     |  _  \  |  |  /  |          
                  \  \/   | |  | |   /    \    | | | |  |  | /  /          
                 / \  \   | |__| |  /  /\  \   | |_| |  |  |/  /          
                |  |  |   |  __  | /  /__\  \  |    /   |      \           
                |  |  |   | |  | | |   __   |  |    \   |  |\   \          
                \     /   | |  | | |  |  |  |  | |\  \  |  | \   \       
                 \___/    |_|  |_| |__|  |__|  |_| \__\ |__|  \__/        
                                                                              
                      - O R C A' S   B I G   F R I E N D -                    
                                      &                                       
                       - I N T E G R A L  F E E D E R -                       
                                                                              
 v1 FN, 2020, v2 2021, v3 2022-2024                                           
------------------------------------------------------------------------------


----------------------
SHARK INTEGRAL PACKAGE
----------------------

Number of atoms                             ...     12
Number of basis functions                   ...    114
Number of shells                            ...     54
Maximum angular momentum                    ...      2
Integral batch strategy                     ... SHARK/LIBINT Hybrid
RI-J (if used) integral strategy            ... SPLIT-RIJ (Revised 2003 algorithm where possible)
Printlevel                                  ...      1
Contraction scheme used                     ... SEGMENTED contraction
Prescreening option                         ... SCHWARTZ
   Thresh                                   ... 1.000e-10
   Tcut                                     ... 1.000e-11
   Tpresel                                  ... 1.000e-11 
Coulomb Range Separation                    ... NOT USED
Exchange Range Separation                   ... NOT USED
Multipole approximations                    ... NOT USED
Finite Nucleus Model                        ... NOT USED
CABS basis                                  ... NOT available
Auxiliary Coulomb fitting basis             ... AVAILABLE
   # of basis functions in Aux-J            ...    360
   # of shells in Aux-J                     ...    120
   Maximum angular momentum in Aux-J        ...      4
Auxiliary J/K fitting basis                 ... NOT available
Auxiliary Correlation fitting basis         ... NOT available
Auxiliary 'external' fitting basis          ... NOT available

Checking pre-screening integrals            ... done (  0.0 sec) Dimension = 54
   => SHARK Basis and OBASIS are compatible. Storing Pre-screening
Shell pair information
Shell pair cut-off parameter TPreSel        ...   1.0e-11
Total number of shell pairs                 ...      1485
Shell pairs after pre-screening             ...      1455
Total number of primitive shell pairs       ...      5349
Primitive shell pairs kept                  ...      4101
          la=0 lb=0:    456 shell pairs
          la=1 lb=0:    522 shell pairs
          la=1 lb=1:    168 shell pairs
          la=2 lb=0:    180 shell pairs
          la=2 lb=1:    108 shell pairs
          la=2 lb=2:     21 shell pairs

Checking whether 4 symmetric matrices of dimension 114 fit in memory
:Max Core in MB      =   2000.00
 MB in use           =      5.19
 MB left             =   1994.81
 MB needed           =      0.20
 Data fit in memory  = YES
Calculating RI/J V-Matrix + Cholesky decomp.... done (  0.0 sec)
Calculating Nuclear repulsion               ... done (  0.0 sec) ENN=    202.697870880646 Eh

Diagonalization of the overlap matrix:
Smallest eigenvalue                        ... 3.243e-04
Time for diagonalization                   ...    0.001 sec
Threshold for overlap eigenvalues          ... 1.000e-07
Number of eigenvalues below threshold      ... 0
Time for construction of square roots      ...    0.001 sec
Total time needed                          ...    0.003 sec

-------------------
DFT GRID GENERATION
-------------------

General Integration Accuracy     IntAcc      ... 4.388
Radial Grid Type                 RadialGrid  ... OptM3 with GC (2021)
Angular Grid (max. ang.)         AngularGrid ... 4 (Lebedev-302)
Angular grid pruning method      GridPruning ... 4 (adaptive)
Weight generation scheme         WeightScheme... mBecke (2022)
Basis function cutoff            BFCut       ... 1.0000e-10
Integration weight cutoff        WCut        ... 1.0000e-14
Partially contracted basis set               ... off
Rotationally invariant grid construction     ... off
Angular grids for H and He will be reduced by one unit

Total number of grid points                  ...    55504
Total number of batches                      ...      870
Average number of points per batch           ...       63
Average number of grid points per atom       ...     4625

--------------------
COSX GRID GENERATION
--------------------

GRIDX 1
-------
General Integration Accuracy     IntAcc      ... 3.816
Radial Grid Type                 RadialGrid  ... OptM3 with GC (2021)
Angular Grid (max. ang.)         AngularGrid ... 1 (Lebedev-50)
Angular grid pruning method      GridPruning ... 4 (adaptive)
Weight generation scheme         WeightScheme... mBecke (2022)
Basis function cutoff            BFCut       ... 1.0000e-10
Integration weight cutoff        WCut        ... 1.0000e-14
Partially contracted basis set               ... on
Rotationally invariant grid construction     ... off
Angular grids for H and He will be reduced by one unit

Total number of grid points                  ...     7122
Total number of batches                      ...       60
Average number of points per batch           ...      118
Average number of grid points per atom       ...      594
UseSFitting                                  ... on

GRIDX 2
-------
General Integration Accuracy     IntAcc      ... 4.020
Radial Grid Type                 RadialGrid  ... OptM3 with GC (2021)
Angular Grid (max. ang.)         AngularGrid ... 2 (Lebedev-110)
Angular grid pruning method      GridPruning ... 4 (adaptive)
Weight generation scheme         WeightScheme... mBecke (2022)
Basis function cutoff            BFCut       ... 1.0000e-10
Integration weight cutoff        WCut        ... 1.0000e-14
Partially contracted basis set               ... on
Rotationally invariant grid construction     ... off
Angular grids for H and He will be reduced by one unit

Total number of grid points                  ...    15488
Total number of batches                      ...      126
Average number of points per batch           ...      122
Average number of grid points per atom       ...     1291
UseSFitting                                  ... on

GRIDX 3
-------
General Integration Accuracy     IntAcc      ... 4.338
Radial Grid Type                 RadialGrid  ... OptM3 with GC (2021)
Angular Grid (max. ang.)         AngularGrid ... 3 (Lebedev-194)
Angular grid pruning method      GridPruning ... 4 (adaptive)
Weight generation scheme         WeightScheme... mBecke (2022)
Basis function cutoff            BFCut       ... 1.0000e-10
Integration weight cutoff        WCut        ... 1.0000e-14
Partially contracted basis set               ... on
Rotationally invariant grid construction     ... off
Angular grids for H and He will be reduced by one unit

Total number of grid points                  ...    34060
Total number of batches                      ...      274
Average number of points per batch           ...      124
Average number of grid points per atom       ...     2838
UseSFitting                                  ... on
Grids setup in   0.4 sec
Initializing property integral containers    ... done (  0.0 sec)

SHARK setup successfully completed in   0.5 seconds

Maximum memory used throughout the entire STARTUP-calculation: 16.0 MB


           ************************************************************
           *        Program running with 4 parallel MPI-processes     *
           *              working on a common directory               *
           ************************************************************
-------------------------------------------------------------------------------
                                 ORCA GUESS
                   Start orbitals & Density for SCF / CASSCF
-------------------------------------------------------------------------------

------------
SCF SETTINGS
------------
Hamiltonian:
 Density Functional     Method          .... DFT(GTOs)
 Exchange Functional    Exchange        .... B88
   X-Alpha parameter    XAlpha          ....  0.666667
   Becke's b parameter  XBeta           ....  0.004200
 Correlation Functional Correlation     .... LYP
 LDA part of GGA corr.  LDAOpt          .... VWN-5
 Gradients option       PostSCFGGA      .... off
 Hybrid DFT is turned on
   Fraction HF Exchange ScalHFX         ....  0.200000
   Scaling of DF-GGA-X  ScalDFX         ....  0.720000
   Scaling of DF-GGA-C  ScalDFC         ....  0.810000
   Scaling of DF-LDA-C  ScalLDAC        ....  1.000000
   Perturbative correction              ....  0.000000
   NL short-range parameter             ....  4.800000
 RI-approximation to the Coulomb term is turned on
   Number of AuxJ basis functions       .... 360
   RIJ-COSX (HFX calculated with COS-X)).... on


General Settings:
 Integral files         IntName         .... benzene-opt-nmr
 Hartree-Fock type      HFTyp           .... RHF
 Total Charge           Charge          ....    0
 Multiplicity           Mult            ....    1
 Number of Electrons    NEL             ....   42
 Basis Dimension        Dim             ....  114
 Nuclear Repulsion      ENuc            ....    202.6978708806 Eh

Convergence Acceleration:
 AO-DIIS                CNVDIIS         .... on
   Start iteration      DIISMaxIt       ....    12
   Startup error        DIISStart       ....  0.200000
   # of expansion vecs  DIISMaxEq       ....     5
   Bias factor          DIISBfac        ....   1.050
   Max. coefficient     DIISMaxC        ....  10.000
 MO-DIIS                CNVKDIIS        .... off
 Trust-Rad. Augm. Hess. CNVTRAH         .... auto
   Auto Start mean grad. ratio tolernc. ....  1.125000
   Auto Start start iteration           ....    50
   Auto Start num. interpolation iter.  ....    10
   Max. Number of Micro iterations      ....    24
   Max. Number of Macro iterations      .... Maxiter - #DIIS iter
   Number of Davidson start vectors     ....     2
   Converg. threshold    (grad. norm)   ....   5.000e-05
   Grad. Scal. Fac. for Micro threshold ....   0.100
   Minimum threshold for Micro iter.    ....   1.000e-02
   NR start threshold (gradient norm)   ....   1.000e-04
   Initial trust radius                 ....   0.400
   Minimum AH scaling param. (alpha)    ....   1.000
   Maximum AH scaling param. (alpha)    .... 1000.000
   Quad. conv. algorithm                .... NR
   White noise on init. David. guess    .... on
   Maximum white noise                  ....   0.010
   Pseudo random numbers                .... off
   Inactive MOs                         .... canonical
   Orbital update algorithm             .... Taylor
   Preconditioner                       .... Diag
   Full preconditioner red. dimension   ....   250
 SOSCF                 CNVSOSCF           .... on
   Start iteration     SOSCFMaxIt         ....   150
   Startup grad/error  SOSCFStart         ....  0.003300
   Hessian update      SOSCFHessUp        .... L-BFGS
   Autom. constraints  SOSCFAutoConstrain .... off
 Level Shifting         CNVShift        .... on
   Level shift para.    LevelShift      ....    0.2500
   Turn off err/grad.   ShiftErr        ....    0.0010
 Zerner damping         CNVZerner       .... off
 Static damping         CNVDamp         .... on
   Fraction old density DampFac         ....    0.7000
   Max. Damping (<1)    DampMax         ....    0.9800
   Min. Damping (>=0)   DampMin         ....    0.0000
   Turn off err/grad.   DampErr         ....    0.1000

SCF Procedure:
 Maximum # iterations   MaxIter         ....   125
 SCF integral mode      SCFMode         .... Direct
   Integral package                     .... SHARK and LIBINT hybrid scheme
 Reset frequency        DirectResetFreq ....    20
 Integral Threshold     Thresh          ....  1.000e-10 Eh
 Primitive CutOff       TCut            ....  1.000e-11 Eh

Convergence Tolerance:
 Convergence Check Mode ConvCheckMode   .... Total+1el-Energy
 Convergence forced     ConvForced      .... 0
 Energy Change          TolE            ....  1.000e-06 Eh
 1-El. energy change                    ....  1.000e-03 Eh
 Orbital Gradient       TolG            ....  5.000e-05
 Orbital Rotation angle TolX            ....  5.000e-05
 DIIS Error             TolErr          ....  1.000e-06

------------------------------
INITIAL GUESS: MODEL POTENTIAL
------------------------------
Loading Hartree-Fock densities                     ... done
Calculating cut-offs                               ... done
Initializing the effective Hamiltonian             ... done
Setting up the integral package (SHARK)            ... done
Starting the Coulomb interaction                   ... done (   0.0 sec)
Making the grid                                    ... done (   0.1 sec)
Mapping shells                                     ... done
Starting the XC term evaluation                    ... done (   0.0 sec)
  promolecular density results
     # of electrons  =     41.996695622
     EX              =    -32.591283486
     EC              =     -1.375923142
     EX+EC           =    -33.967206628
Transforming the Hamiltonian                       ... done (   0.0 sec)
Diagonalizing the Hamiltonian                      ... done (   0.0 sec)
Back transforming the eigenvectors                 ... done (   0.0 sec)
Now organizing SCF variables                       ... done
                      ------------------
                      INITIAL GUESS DONE (   0.1 sec)
                      ------------------
             **** ENERGY FILE WAS UPDATED (benzene-opt-nmr.en.tmp) ****
Finished Guess after   0.2 sec
Maximum memory used throughout the entire GUESS-calculation: 7.7 MB


           ************************************************************
           *        Program running with 4 parallel MPI-processes     *
           *              working on a common directory               *
           ************************************************************

-------------------------------------------------------------------------------------------
                                      ORCA LEAN-SCF
                              memory conserving SCF solver
-------------------------------------------------------------------------------------------

----------------------------------------D-I-I-S--------------------------------------------
Iteration    Energy (Eh)           Delta-E    RMSDP     MaxDP     DIISErr   Damp  Time(sec)
-------------------------------------------------------------------------------------------
               ***  Starting incremental Fock matrix formation  ***
    1    -231.7990844027272317     0.00e+00  8.41e-03  4.89e-02  1.20e-01  0.700   0.4
    2    -231.8576004568486439    -5.85e-02  6.07e-03  3.28e-02  6.14e-02  0.700   0.3
                               ***Turning on AO-DIIS***
    3    -231.8836598762487426    -2.61e-02  2.78e-03  1.21e-02  2.75e-02  0.700   0.3
    4    -231.8986296696881766    -1.50e-02  5.22e-03  1.99e-02  1.56e-02  0.000   0.3
    5    -231.9304748148611282    -3.18e-02  5.77e-04  3.38e-03  4.64e-03  0.000   0.3
                              *** Initializing SOSCF ***
---------------------------------------S-O-S-C-F--------------------------------------
Iteration    Energy (Eh)           Delta-E    RMSDP     MaxDP     MaxGrad    Time(sec)
--------------------------------------------------------------------------------------
    6    -231.9306416375675042    -1.67e-04  2.39e-04  1.26e-03  1.01e-03     0.3
               *** Restarting incremental Fock matrix formation ***
    7    -231.9307001845018874    -5.85e-05  1.37e-04  8.48e-04  2.19e-04     0.4
    8    -231.9307006471578632    -4.63e-07  2.88e-05  1.86e-04  1.35e-04     0.4
                 **** Energy Check signals convergence ****

               *****************************************************
               *                     SUCCESS                       *
               *           SCF CONVERGED AFTER   8 CYCLES          *
               *****************************************************

Recomputing exchange energy using gridx3       ... done (    0.626 sec)
Old exchange energy                            :     -6.628075500 Eh
New exchange energy                            :     -6.628159428 Eh
Exchange energy change after final integration :     -0.000083927 Eh
Total energy after final integration           :   -231.930784926 Eh
             **** ENERGY FILE WAS UPDATED (benzene-opt-nmr.en.tmp) ****

----------------
TOTAL SCF ENERGY
----------------

Total Energy       :       -231.93078492611488 Eh           -6311.15751 eV

Components:
Nuclear Repulsion  :        202.69787088064638 Eh            5515.68948 eV
Electronic Energy  :       -434.62857187929490 Eh          -11826.84471 eV
One Electron Energy:       -712.34056692978743 Eh          -19383.77228 eV
Two Electron Energy:        277.71199505049253 Eh            7556.92757 eV

Virial components:
Potential Energy   :       -461.23649641710324 Eh          -12550.88314 eV
Kinetic Energy     :        229.30571149098836 Eh            6239.72563 eV
Virial Ratio       :          2.01144791997573

DFT components:
N(Alpha)           :       20.999998555676 electrons
N(Beta)            :       20.999998555676 electrons
N(Total)           :       41.999997111353 electrons
E(X)               :      -26.301431633127 Eh       
E(C)               :       -1.631829551458 Eh       
E(XC)              :      -27.933261184586 Eh       

---------------
SCF CONVERGENCE
---------------

  Last Energy change         ...    4.6266e-07  Tolerance :   1.0000e-06
  Last MAX-Density change    ...    1.8618e-04  Tolerance :   1.0000e-05
  Last RMS-Density change    ...    2.8770e-05  Tolerance :   1.0000e-06
  Last DIIS Error            ...    1.0109e-03  Tolerance :   1.0000e-06
  Last Orbital Gradient      ...    1.3533e-04  Tolerance :   5.0000e-05
  Last Orbital Rotation      ...    1.0965e-04  Tolerance :   5.0000e-05


----------------
ORBITAL ENERGIES
----------------

  NO   OCC          E(Eh)            E(eV) 
   0   2.0000     -10.188343      -277.2389 
   1   2.0000     -10.188198      -277.2350 
   2   2.0000     -10.188186      -277.2346 
   3   2.0000     -10.187805      -277.2243 
   4   2.0000     -10.187795      -277.2240 
   5   2.0000     -10.187687      -277.2211 
   6   2.0000      -0.841741       -22.9049 
   7   2.0000      -0.733775       -19.9670 
   8   2.0000      -0.733774       -19.9670 
   9   2.0000      -0.593351       -16.1459 
  10   2.0000      -0.593344       -16.1457 
  11   2.0000      -0.517891       -14.0925 
  12   2.0000      -0.453230       -12.3330 
  13   2.0000      -0.444970       -12.1082 
  14   2.0000      -0.418529       -11.3887 
  15   2.0000      -0.418517       -11.3884 
  16   2.0000      -0.364936        -9.9304 
  17   2.0000      -0.342964        -9.3325 
  18   2.0000      -0.342956        -9.3323 
  19   2.0000      -0.252660        -6.8752 
  20   2.0000      -0.252649        -6.8749 
  21   0.0000      -0.005861        -0.1595 
  22   0.0000      -0.005854        -0.1593 
  23   0.0000       0.060182         1.6376 
  24   0.0000       0.101529         2.7627 
  25   0.0000       0.101531         2.7628 
  26   0.0000       0.139231         3.7887 
  27   0.0000       0.139255         3.7893 
  28   0.0000       0.151209         4.1146 
  29   0.0000       0.159893         4.3509 
  30   0.0000       0.289481         7.8772 
  31   0.0000       0.289515         7.8781 
*Only the first 10 virtual orbitals were printed.

                    ********************************
                    * MULLIKEN POPULATION ANALYSIS *
                    ********************************

-----------------------
MULLIKEN ATOMIC CHARGES
-----------------------
   0 C :    0.016422
   1 C :    0.016293
   2 C :    0.016646
   3 C :    0.016421
   4 C :    0.016294
   5 C :    0.016647
   6 H :   -0.016424
   7 H :   -0.016320
   8 H :   -0.016618
   9 H :   -0.016424
  10 H :   -0.016320
  11 H :   -0.016618
Sum of atomic charges:    0.0000000

--------------------------------
MULLIKEN REDUCED ORBITAL CHARGES
--------------------------------
  0 C s       :     3.159953  s :     3.159953
      pz      :     0.986698  p :     2.788970
      px      :     0.921096
      py      :     0.881176
      dz2     :     0.002506  d :     0.034655
      dxz     :     0.004975
      dyz     :     0.003628
      dx2y2   :     0.010830
      dxy     :     0.012716

  1 C s       :     3.159713  s :     3.159713
      pz      :     0.986710  p :     2.789336
      px      :     0.842882
      py      :     0.959744
      dz2     :     0.002502  d :     0.034658
      dxz     :     0.002328
      dyz     :     0.006278
      dx2y2   :     0.012913
      dxy     :     0.010637

  2 C s       :     3.159883  s :     3.159883
      pz      :     0.986663  p :     2.788816
      px      :     0.939592
      py      :     0.862562
      dz2     :     0.002503  d :     0.034655
      dxz     :     0.005601
      dyz     :     0.003004
      dx2y2   :     0.011579
      dxy     :     0.011968

  3 C s       :     3.159953  s :     3.159953
      pz      :     0.986698  p :     2.788971
      px      :     0.921099
      py      :     0.881174
      dz2     :     0.002506  d :     0.034655
      dxz     :     0.004975
      dyz     :     0.003628
      dx2y2   :     0.010830
      dxy     :     0.012716

  4 C s       :     3.159712  s :     3.159712
      pz      :     0.986710  p :     2.789336
      px      :     0.842882
      py      :     0.959744
      dz2     :     0.002502  d :     0.034658
      dxz     :     0.002328
      dyz     :     0.006278
      dx2y2   :     0.012913
      dxy     :     0.010637

  5 C s       :     3.159884  s :     3.159884
      pz      :     0.986663  p :     2.788814
      px      :     0.939590
      py      :     0.862561
      dz2     :     0.002503  d :     0.034655
      dxz     :     0.005601
      dyz     :     0.003004
      dx2y2   :     0.011579
      dxy     :     0.011968

  6 H s       :     0.993750  s :     0.993750
      pz      :     0.004673  p :     0.022674
      px      :     0.007084
      py      :     0.010918

  7 H s       :     0.993650  s :     0.993650
      pz      :     0.004676  p :     0.022670
      px      :     0.014602
      py      :     0.003392

  8 H s       :     0.993941  s :     0.993941
      pz      :     0.004675  p :     0.022677
      px      :     0.005311
      py      :     0.012692

  9 H s       :     0.993750  s :     0.993750
      pz      :     0.004673  p :     0.022674
      px      :     0.007084
      py      :     0.010918

 10 H s       :     0.993649  s :     0.993649
      pz      :     0.004676  p :     0.022670
      px      :     0.014602
      py      :     0.003392

 11 H s       :     0.993941  s :     0.993941
      pz      :     0.004675  p :     0.022677
      px      :     0.005311
      py      :     0.012692



                     *******************************
                     * LOEWDIN POPULATION ANALYSIS *
                     *******************************

----------------------
LOEWDIN ATOMIC CHARGES
----------------------
   0 C :   -0.026249
   1 C :   -0.026300
   2 C :   -0.026220
   3 C :   -0.026249
   4 C :   -0.026300
   5 C :   -0.026220
   6 H :    0.026262
   7 H :    0.026281
   8 H :    0.026226
   9 H :    0.026262
  10 H :    0.026281
  11 H :    0.026226

-------------------------------
LOEWDIN REDUCED ORBITAL CHARGES
-------------------------------
  0 C s       :     2.864034  s :     2.864034
      pz      :     0.968662  p :     3.072593
      px      :     1.057290
      py      :     1.046641
      dz2     :     0.006091  d :     0.089622
      dxz     :     0.010305
      dyz     :     0.007053
      dx2y2   :     0.030947
      dxy     :     0.035226

  1 C s       :     2.864033  s :     2.864033
      pz      :     0.968683  p :     3.072644
      px      :     1.036362
      py      :     1.067598
      dz2     :     0.006083  d :     0.089624
      dxz     :     0.003918
      dyz     :     0.013444
      dx2y2   :     0.035674
      dxy     :     0.030505

  2 C s       :     2.864030  s :     2.864030
      pz      :     0.968642  p :     3.072559
      px      :     1.062226
      py      :     1.041692
      dz2     :     0.006088  d :     0.089631
      dxz     :     0.011813
      dyz     :     0.005548
      dx2y2   :     0.032648
      dxy     :     0.033534

  3 C s       :     2.864034  s :     2.864034
      pz      :     0.968662  p :     3.072593
      px      :     1.057290
      py      :     1.046641
      dz2     :     0.006091  d :     0.089622
      dxz     :     0.010305
      dyz     :     0.007053
      dx2y2   :     0.030947
      dxy     :     0.035226

  4 C s       :     2.864033  s :     2.864033
      pz      :     0.968683  p :     3.072644
      px      :     1.036362
      py      :     1.067598
      dz2     :     0.006083  d :     0.089624
      dxz     :     0.003918
      dyz     :     0.013444
      dx2y2   :     0.035674
      dxy     :     0.030505

  5 C s       :     2.864030  s :     2.864030
      pz      :     0.968642  p :     3.072560
      px      :     1.062226
      py      :     1.041692
      dz2     :     0.006088  d :     0.089631
      dxz     :     0.011813
      dyz     :     0.005548
      dx2y2   :     0.032648
      dxy     :     0.033534

  6 H s       :     0.907411  s :     0.907411
      pz      :     0.014031  p :     0.066327
      px      :     0.020997
      py      :     0.031300

  7 H s       :     0.907390  s :     0.907390
      pz      :     0.014042  p :     0.066329
      px      :     0.041212
      py      :     0.011075

  8 H s       :     0.907445  s :     0.907445
      pz      :     0.014036  p :     0.066329
      px      :     0.016223
      py      :     0.036069

  9 H s       :     0.907411  s :     0.907411
      pz      :     0.014030  p :     0.066327
      px      :     0.020997
      py      :     0.031300

 10 H s       :     0.907390  s :     0.907390
      pz      :     0.014042  p :     0.066329
      px      :     0.041212
      py      :     0.011074

 11 H s       :     0.907445  s :     0.907445
      pz      :     0.014036  p :     0.066329
      px      :     0.016223
      py      :     0.036069



                      *****************************
                      * MAYER POPULATION ANALYSIS *
                      *****************************

  NA   - Mulliken gross atomic population
  ZA   - Total nuclear charge
  QA   - Mulliken gross atomic charge
  VA   - Mayer's total valence
  BVA  - Mayer's bonded valence
  FA   - Mayer's free valence

  ATOM       NA         ZA         QA         VA         BVA        FA
  0 C      5.9836     6.0000     0.0164     3.8538     3.8538    -0.0000
  1 C      5.9837     6.0000     0.0163     3.8539     3.8539     0.0000
  2 C      5.9834     6.0000     0.0166     3.8539     3.8539     0.0000
  3 C      5.9836     6.0000     0.0164     3.8538     3.8538    -0.0000
  4 C      5.9837     6.0000     0.0163     3.8539     3.8539     0.0000
  5 C      5.9834     6.0000     0.0166     3.8539     3.8539     0.0000
  6 H      1.0164     1.0000    -0.0164     0.9773     0.9773    -0.0000
  7 H      1.0163     1.0000    -0.0163     0.9773     0.9773     0.0000
  8 H      1.0166     1.0000    -0.0166     0.9773     0.9773     0.0000
  9 H      1.0164     1.0000    -0.0164     0.9773     0.9773     0.0000
 10 H      1.0163     1.0000    -0.0163     0.9773     0.9773     0.0000
 11 H      1.0166     1.0000    -0.0166     0.9773     0.9773     0.0000

  Mayer bond orders larger than 0.100000
B(  0-C ,  1-C ) :   1.3925 B(  0-C ,  5-C ) :   1.3924 B(  0-C ,  6-H ) :   0.9840 
B(  1-C ,  2-C ) :   1.3926 B(  1-C ,  7-H ) :   0.9838 B(  2-C ,  3-C ) :   1.3924 
B(  2-C ,  8-H ) :   0.9840 B(  3-C ,  4-C ) :   1.3925 B(  3-C ,  9-H ) :   0.9840 
B(  4-C ,  5-C ) :   1.3926 B(  4-C , 10-H ) :   0.9838 B(  5-C , 11-H ) :   0.9840 


-------
TIMINGS
-------

Total SCF time: 0 days 0 hours 0 min 3 sec 

Total time                  ....       3.769 sec
Sum of individual times     ....       3.401 sec  ( 90.3%)

SCF preparation             ....       0.116 sec  (  3.1%)
Fock matrix formation       ....       3.158 sec  ( 83.8%)
  Startup                   ....       0.004 sec  (  0.1% of F)
  Split-RI-J                ....       0.376 sec  ( 11.9% of F)
  Chain of spheres X        ....       2.449 sec  ( 77.6% of F)
  XC integration            ....       0.600 sec  ( 19.0% of F)
    XC Preparation          ....       0.000 sec  (  0.0% of XC)
    Basis function eval.    ....       0.178 sec  ( 29.7% of XC)
    Density eval.           ....       0.114 sec  ( 19.0% of XC)
    XC-Functional eval.     ....       0.032 sec  (  5.3% of XC)
    XC-Potential eval.      ....       0.087 sec  ( 14.6% of XC)
Diagonalization             ....       0.000 sec  (  0.0%)
Density matrix formation    ....       0.017 sec  (  0.5%)
Total Energy calculation    ....       0.009 sec  (  0.2%)
Population analysis         ....       0.010 sec  (  0.3%)
Orbital Transformation      ....       0.013 sec  (  0.3%)
Orbital Orthonormalization  ....       0.000 sec  (  0.0%)
DIIS solution               ....       0.059 sec  (  1.6%)
SOSCF solution              ....       0.019 sec  (  0.5%)
Finished LeanSCF after   3.8 sec

Maximum memory used throughout the entire LEANSCF-calculation: 10.1 MB


           ************************************************************
           *        Program running with 4 parallel MPI-processes     *
           *              working on a common directory               *
           ************************************************************

------------------------------------------------------------------------------
                         ORCA PROPERTY INTEGRAL CALCULATIONS
------------------------------------------------------------------------------

GBWName                                   ... benzene-opt-nmr.gbw
Number of atoms                           ...     12
Number of basis functions                 ...    114
Max core memory                           ...   2000 MB

Dipole integrals                          ... YES
Quadrupole integrals                      ...  NO
Linear momentum integrals                 ...  NO
Angular momentum integrals                ...  NO
Higher moments length integrals           ...  NO
Higher moments velocity integrals         ...  NO
Kinetic energy integrals                  ...  NO
GIAO right hand sides                     ... YES
GIAO dipole derivative integrals          ...  NO
SOC integrals                             ...  NO
EPR diamagnetic integrals (GIAO)          ...  NO
EPR gauge integrals                       ...  NO
Field gradient integrals                  ...  NO (   0 nuclei)
Spin-dipole/Fermi contact integrals       ...  NO (   0 nuclei)
Contact density integrals                 ...  NO (   0 nuclei)
Nucleus-orbit integrals                   ...  NO (   0 nuclei)
Geometric perturbations                   ...  NO (  12 nuclei)

Choice of electric origin   ... Center of mass
Position of electric origin ... (  0.0000, -0.0000, -0.0000) 
Choice of magnetic origin   ... GIAO
Position of magnetic origin ... (  0.0000,  0.0000,  0.0000) 

Calculating integrals                     ... Electric Dipole (Length)     done (  0.0 sec)

Calculating integrals                     ... GIAO Right Hand Sides
     -> RIJCOSX used in SCF. Same chosen for GIAO calculation.
  One-electron GIAO integrals (SHARK)     ... done (  0.0 sec)
  Calculating G(B)[P]                     ... (RI-J: SHARK-ok) (COSX-ok) (add-J+K:ok) => dG/dB done (  0.8 sec)
  DFT XC-terms                            ... done (  0.7 sec)
  Extracting occupied and virtual blocks  ... 
  Operator  0  NO=  21 NV=  93 
  Transforming and RHS contribution       ... done
  Adding eps_i * S(B)_ai terms            ... done
  Projecting overlap derivatives          ... done (  0.0 sec)
  Building G[dS/dB_ij] (COSX)             ... done (  0.1 sec)
  Transforming to MO basis                ... done
  Summing G[dS/dB_ij] into RHS contribs.  ... done
  GIAO Right hand sides done (  1.6 sec)


Property integrals calculated in   1.6 sec

Maximum memory used throughout the entire PROPINT-calculation: 15.5 MB

-------------------------   --------------------
FINAL SINGLE POINT ENERGY      -231.930784926115
-------------------------   --------------------



           ************************************************************
           *        Program running with 4 parallel MPI-processes     *
           *              working on a common directory               *
           ************************************************************
------------------------------------------------------------------------------
                            ORCA SCF RESPONSE CALCULATION
------------------------------------------------------------------------------

GBWName                                 ... benzene-opt-nmr.gbw
Number of atoms                         ...     12
Number of basis functions               ...    114
Max core memory                         ...   2000 MB

Electric field perturbation             ...  NO
Quadrupolar field perturbation          ...  NO
Magnetic field perturbation (no GIAO)   ...  NO
Magnetic field perturbation (with GIAO) ... YES
Linear momentum (velocity) perturbation ...  NO
Spin-orbit coupling perturbation        ...  NO
Choice of electric origin               ... Center of mass
Position of electric origin             ...     0.000000    -0.000001    -0.000000
Choice of magnetic origin               ... GIAO
Position of magnetic origin             ...     0.000000     0.000000     0.000000
Nuclear geometric perturbations         ...  NO (  36 perturbations)
Nucleus-orbit perturbations             ...  NO (   0 perturbations)
Spin-dipole/Fermi contact perturbations ...  NO (   0 perturbations)

Total number of real perturbations      ...      0
Total number of imaginary perturbations ...      3
Total number of triplet perturbations   ...      0
Total number of SOC perturbations       ...      0

Using XC Grid                  ... (benzene-opt-nmr.grid_cpscf.tmp) 
Recalculating density on grid  ... (benzene-opt-nmr.grho_cpscf0.tmp) done
Calculating the xc-kernel      ... (benzene-opt-nmr.fxc_cpscf0.tmp) done

                              ***************************
                              * IMAGINARY PERTURBATIONS *
                              ***************************



-------------------
SHARK CP-SCF DRIVER
-------------------

Dimension of the orbital basis          ...    114
Dimension of the CPSCF-problem          ...   1953
Number of operators                     ...      1
Max. number of iterations               ...    128
Convergence Tolerance                   ... 1.0e-03
Number of perturbations                 ...      3
Perturbation type                       ... IMAGINARY

----------------------------
POPLE LINEAR EQUATION SOLVER
----------------------------

  ITERATION   0:   ||err||_max =   4.3568e-01 (   0.1 sec   0/  3 done)
  ITERATION   1:   ||err||_max =   2.3595e-03 (   0.1 sec   0/  3 done)
  ITERATION   2:   ||err||_max =   9.1859e-05 (   0.1 sec   3/  3 done)

CP-SCF equations solved in   0.4 sec
Response densities calculated in   0.0 sec

Maximum memory used throughout the entire SCFRESP-calculation: 11.1 MB


           ************************************************************
           *        Program running with 4 parallel MPI-processes     *
           *              working on a common directory               *
           ************************************************************

------------------------------------------------------------------------------
                              ORCA PROPERTY CALCULATIONS
------------------------------------------------------------------------------

GBWName                                 ... benzene-opt-nmr.gbw
Number of atoms                         ...     12
Number of basis functions               ...    114
Max core memory                         ...   2000 MB

Electric properties:
Dipole moment                           ... YES
Quadrupole moment                       ...  NO
Static polarizability (Dipole/Dipole)   ...  NO
Static polarizability (Dipole/Quad.)    ...  NO
Static polarizability (Quad./Quad.)     ...  NO
Static polarizability (Velocity)        ...  NO
Static hyperpolarizability              ...  NO

Atomic electric properties:
Dipole moment                           ...  NO
Quadrupole moment                       ...  NO
Static polarizability                   ...  NO

Choice of electric origin               ... Center of mass
Position of electric origin             ...     0.000000    -0.000001    -0.000000

General magnetic properties:
Magnetizability                         ...  NO

EPR properties:
g-Tensor (aka g-matrix)                 ...  NO
Zero-Field splitting spin-orbit         ...  NO
Zero-field splitting spin-spin          ...  NO
Hyperfine couplings                     ...  NO (   0 nuclei)
Quadrupole couplings                    ...  NO (   0 nuclei)
Contact density                         ...  NO (   0 nuclei)

NMR properties:
Chemical shifts                         ... YES (  12 nuclei)
Spin-rotation constants                 ...  NO (   0 nuclei)
Spin-spin couplings                     ...  NO (   0 nuclei,    0 pairs)

Choice of magnetic origin               ... GIAO
Position of magnetic origin             ...     0.000000     0.000000     0.000000

Properties with geometric perturbations:
SCF Hessian                             ...  NO
IR spectrum                             ...  NO
VCD spectrum                            ...  NO
X-ray spectroscopy properties:
SCF XES/XAS/RIXS spectra                ...  NO

SCF SOC stabilization energy            ...  NO
Diagonal Born-Oppenheimer correction    ...  NO

-------------
DIPOLE MOMENT
-------------

Method             : SCF
Type of density    : Electron Density
Multiplicity       :   1
Irrep              :   0
Energy             :  -231.9307849261148817 Eh
Basis              : AO
                                X                 Y                 Z
Electronic contribution:     -0.000001808      -0.000004116      -0.000001984
Nuclear contribution   :      0.000002597       0.000004328       0.000002597
                        -----------------------------------------
Total Dipole Moment    :      0.000000789       0.000000212       0.000000612
                        -----------------------------------------
Magnitude (a.u.)       :      0.000001021
Magnitude (Debye)      :      0.000002594



--------------------
Rotational spectrum 
--------------------
 
Rotational constants in cm-1:             0.188735             0.188725             0.094365 
Rotational constants in MHz :          5658.146804          5657.845656          2828.998113 

Dipole components along the rotational axes: 
x,y,z [a.u.] :    -0.000000     0.000001     0.000001 
x,y,z [Debye]:    -0.000001     0.000002     0.000002 

 

Dipole moment calculation done in   0.0 sec 
GIAO: Analytic para- and diamagnetic shielding integrals (SHARK)       ... done (  0.0 sec)
-------------------
CHEMICAL SHIELDINGS (ppm)
-------------------

Method             : SCF
Type of density    : Electron Density
Type of derivative : Magnetic Field (with GIAOs) (Direction=X)
Multiplicity       :   1
Irrep              :   0
Basis              : AO
 --------------
 Nucleus   0C :
 --------------

Diamagnetic contribution to the shielding tensor (ppm) : 
           261.561          1.145        -0.637
             1.127        260.758        -0.228
            -0.639         -0.228       229.563

Paramagnetic contribution to the shielding tensor (ppm): 
          -241.830         40.175         3.555
            40.180       -270.550         0.686
             3.545          0.680       -47.620

Total shielding tensor (ppm): 
            19.731         41.319         2.918
            41.306         -9.792         0.457
             2.907          0.452       181.943


 Diagonalized sT*s matrix:
 
 sDSO           259.956          262.377          229.549  iso=     250.628
 sPSO          -298.865         -213.589          -47.546  iso=    -186.667
        ---------------  ---------------  ---------------
 Total          -38.909           48.788          182.003  iso=      63.961

 Orientation: 
  X           0.5766674    0.8167440    0.0195952
  Y          -0.8169576    0.5766602    0.0065861
  Z          -0.0059206   -0.0198064    0.9997863

 --------------
 Nucleus   1C :
 --------------

Diamagnetic contribution to the shielding tensor (ppm) : 
           259.975         -0.231        -0.595
            -0.219        262.370        -0.213
            -0.596         -0.214       229.602

Paramagnetic contribution to the shielding tensor (ppm): 
          -298.075         -7.628         4.975
            -7.622       -214.306         1.252
             4.968          1.248       -47.673

Total shielding tensor (ppm): 
           -38.100         -7.859         4.379
            -7.841         48.064         1.039
             4.372          1.034       181.930


 Diagonalized sT*s matrix:
 
 sDSO           259.966          262.392          229.589  iso=     250.649
 sPSO          -298.865         -213.622          -47.567  iso=    -186.685
        ---------------  ---------------  ---------------
 Total          -38.899           48.770          182.022  iso=      63.964

 Orientation: 
  X           0.9958073    0.0893484    0.0196157
  Y           0.0892352   -0.9959889    0.0065735
  Z          -0.0201244    0.0047955    0.9997860

 --------------
 Nucleus   2C :
 --------------

Diamagnetic contribution to the shielding tensor (ppm) : 
           261.934         -0.924        -0.630
            -0.925        260.379        -0.185
            -0.630         -0.185       229.562

Paramagnetic contribution to the shielding tensor (ppm): 
          -228.555        -32.458         3.773
           -32.461       -283.845         2.200
             3.764          2.197       -47.630

Total shielding tensor (ppm): 
            33.378        -33.382         3.142
           -33.386        -23.466         2.014
             3.134          2.012       181.932


 Diagonalized sT*s matrix:
 
 sDSO           259.955          262.372          229.549  iso=     250.625
 sPSO          -298.887         -213.602          -47.542  iso=    -186.677
        ---------------  ---------------  ---------------
 Total          -38.933           48.770          182.007  iso=      63.948

 Orientation: 
  X          -0.4194499    0.9075668    0.0196035
  Y          -0.9076672   -0.4196388    0.0065960
  Z           0.0142127   -0.0150268    0.9997861

 --------------
 Nucleus   3C :
 --------------

Diamagnetic contribution to the shielding tensor (ppm) : 
           261.561          1.145        -0.637
             1.127        260.759        -0.228
            -0.639         -0.228       229.563

Paramagnetic contribution to the shielding tensor (ppm): 
          -241.830         40.175         3.555
            40.180       -270.550         0.685
             3.546          0.680       -47.620

Total shielding tensor (ppm): 
            19.731         41.319         2.918
            41.306         -9.792         0.457
             2.907          0.451       181.943


 Diagonalized sT*s matrix:
 
 sDSO           259.956          262.377          229.549  iso=     250.628
 sPSO          -298.865         -213.589          -47.546  iso=    -186.667
        ---------------  ---------------  ---------------
 Total          -38.909           48.788          182.003  iso=      63.961

 Orientation: 
  X           0.5766661    0.8167448    0.0195967
  Y          -0.8169584    0.5766590    0.0065845
  Z          -0.0059228   -0.0198068    0.9997863

 --------------
 Nucleus   4C :
 --------------

Diamagnetic contribution to the shielding tensor (ppm) : 
           259.975         -0.231        -0.595
            -0.219        262.370        -0.213
            -0.596         -0.214       229.602

Paramagnetic contribution to the shielding tensor (ppm): 
          -298.074         -7.628         4.975
            -7.622       -214.306         1.252
             4.968          1.248       -47.673

Total shielding tensor (ppm): 
           -38.099         -7.859         4.379
            -7.841         48.064         1.039
             4.373          1.034       181.929


 Diagonalized sT*s matrix:
 
 sDSO           259.966          262.392          229.589  iso=     250.649
 sPSO          -298.865         -213.622          -47.567  iso=    -186.685
        ---------------  ---------------  ---------------
 Total          -38.898           48.770          182.022  iso=      63.965

 Orientation: 
  X           0.9958069    0.0893518    0.0196169
  Y           0.0892386   -0.9959886    0.0065724
  Z          -0.0201255    0.0047943    0.9997860

 --------------
 Nucleus   5C :
 --------------

Diamagnetic contribution to the shielding tensor (ppm) : 
           261.934         -0.924        -0.630
            -0.925        260.379        -0.185
            -0.630         -0.185       229.562

Paramagnetic contribution to the shielding tensor (ppm): 
          -228.555        -32.458         3.773
           -32.461       -283.845         2.200
             3.764          2.197       -47.629

Total shielding tensor (ppm): 
            33.378        -33.382         3.142
           -33.386        -23.465         2.014
             3.134          2.012       181.933


 Diagonalized sT*s matrix:
 
 sDSO           259.955          262.372          229.549  iso=     250.625
 sPSO          -298.887         -213.602          -47.541  iso=    -186.676
        ---------------  ---------------  ---------------
 Total          -38.932           48.770          182.008  iso=      63.949

 Orientation: 
  X          -0.4194472    0.9075680    0.0196042
  Y          -0.9076685   -0.4196361    0.0065965
  Z           0.0142134   -0.0150273    0.9997861

 --------------
 Nucleus   6H :
 --------------

Diamagnetic contribution to the shielding tensor (ppm) : 
            32.941         -6.893        -0.185
            -6.892         37.870         0.026
            -0.185          0.026        21.225

Paramagnetic contribution to the shielding tensor (ppm): 
            -6.608          8.487         0.075
             8.485        -12.672        -0.083
             0.074         -0.083         0.024

Total shielding tensor (ppm): 
            26.334          1.594        -0.110
             1.593         25.197        -0.057
            -0.111         -0.057        21.249


 Diagonalized sT*s matrix:
 
 sDSO            21.222           42.726           28.088  iso=      30.679
 sPSO             0.025          -18.652           -0.629  iso=      -6.419
        ---------------  ---------------  ---------------
 Total           21.247           24.074           27.460  iso=      24.260

 Orientation: 
  X           0.0197292   -0.5760830   -0.8171531
  Y           0.0064991    0.8173688   -0.5760781
  Z           0.9997842    0.0060548    0.0198700

 --------------
 Nucleus   7H :
 --------------

Diamagnetic contribution to the shielding tensor (ppm) : 
            42.600          1.313        -0.428
             1.314         28.206        -0.072
            -0.429         -0.072        21.223

Paramagnetic contribution to the shielding tensor (ppm): 
           -18.502         -1.617         0.374
            -1.620         -0.774         0.037
             0.375          0.037         0.024

Total shielding tensor (ppm): 
            24.098         -0.304        -0.054
            -0.306         27.432        -0.035
            -0.054         -0.036        21.247


 Diagonalized sT*s matrix:
 
 sDSO            21.214           42.727           28.087  iso=      30.676
 sPSO             0.032          -18.656           -0.627  iso=      -6.417
        ---------------  ---------------  ---------------
 Total           21.246           24.071           27.460  iso=      24.259

 Orientation: 
  X           0.0197184    0.9957257   -0.0902307
  Y           0.0066580    0.0901155    0.9959091
  Z           0.9997834   -0.0202385   -0.0048526

 --------------
 Nucleus   8H :
 --------------

Diamagnetic contribution to the shielding tensor (ppm) : 
            30.666          5.573        -0.222
             5.573         40.145        -0.234
            -0.222         -0.234        21.236

Paramagnetic contribution to the shielding tensor (ppm): 
            -3.805         -6.865         0.120
            -6.864        -15.479         0.236
             0.121          0.237         0.015

Total shielding tensor (ppm): 
            26.862         -1.293        -0.102
            -1.291         24.667         0.002
            -0.101          0.003        21.251


 Diagonalized sT*s matrix:
 
 sDSO            21.231           42.726           28.092  iso=      30.683
 sPSO             0.019          -18.656           -0.631  iso=      -6.423
        ---------------  ---------------  ---------------
 Total           21.249           24.070           27.461  iso=      24.260

 Orientation: 
  X           0.0196420   -0.4194395    0.9075708
  Y           0.0066694   -0.9076707   -0.4196300
  Z           0.9997848    0.0142954   -0.0150310

 --------------
 Nucleus   9H :
 --------------

Diamagnetic contribution to the shielding tensor (ppm) : 
            32.941         -6.893        -0.185
            -6.892         37.870         0.026
            -0.185          0.026        21.225

Paramagnetic contribution to the shielding tensor (ppm): 
            -6.607          8.487         0.075
             8.485        -12.672        -0.083
             0.074         -0.083         0.024

Total shielding tensor (ppm): 
            26.334          1.594        -0.110
             1.593         25.197        -0.057
            -0.111         -0.057        21.249


 Diagonalized sT*s matrix:
 
 sDSO            21.222           42.726           28.088  iso=      30.679
 sPSO             0.025          -18.652           -0.629  iso=      -6.419
        ---------------  ---------------  ---------------
 Total           21.247           24.074           27.460  iso=      24.260

 Orientation: 
  X           0.0197296   -0.5760735   -0.8171598
  Y           0.0064983    0.8173755   -0.5760686
  Z           0.9997842    0.0060555    0.0198700

 --------------
 Nucleus  10H :
 --------------

Diamagnetic contribution to the shielding tensor (ppm) : 
            42.600          1.313        -0.428
             1.314         28.206        -0.072
            -0.429         -0.072        21.223

Paramagnetic contribution to the shielding tensor (ppm): 
           -18.502         -1.617         0.374
            -1.620         -0.774         0.037
             0.375          0.037         0.024

Total shielding tensor (ppm): 
            24.098         -0.304        -0.054
            -0.306         27.432        -0.035
            -0.054         -0.035        21.247


 Diagonalized sT*s matrix:
 
 sDSO            21.214           42.727           28.087  iso=      30.676
 sPSO             0.032          -18.656           -0.627  iso=      -6.417
        ---------------  ---------------  ---------------
 Total           21.246           24.071           27.460  iso=      24.259

 Orientation: 
  X           0.0197169    0.9957260   -0.0902272
  Y           0.0066569    0.0901120    0.9959094
  Z           0.9997834   -0.0202369   -0.0048517

 --------------
 Nucleus  11H :
 --------------

Diamagnetic contribution to the shielding tensor (ppm) : 
            30.666          5.573        -0.222
             5.573         40.145        -0.234
            -0.222         -0.234        21.236

Paramagnetic contribution to the shielding tensor (ppm): 
            -3.805         -6.865         0.120
            -6.864        -15.479         0.236
             0.121          0.237         0.015

Total shielding tensor (ppm): 
            26.862         -1.293        -0.102
            -1.291         24.667         0.002
            -0.101          0.003        21.251


 Diagonalized sT*s matrix:
 
 sDSO            21.231           42.726           28.092  iso=      30.683
 sPSO             0.019          -18.656           -0.631  iso=      -6.423
        ---------------  ---------------  ---------------
 Total           21.249           24.070           27.461  iso=      24.260

 Orientation: 
  X           0.0196431   -0.4194380    0.9075714
  Y           0.0066696   -0.9076714   -0.4196285
  Z           0.9997848    0.0142959   -0.0150320



--------------------------------
CHEMICAL SHIELDING SUMMARY (ppm)
--------------------------------


  Nucleus  Element    Isotropic     Anisotropy
  -------  -------  ------------   ------------
      0       C           63.961        177.064 
      1       C           63.964        177.087 
      2       C           63.948        177.088 
      3       C           63.961        177.064 
      4       C           63.965        177.086 
      5       C           63.949        177.089 
      6       H           24.260          4.800 
      7       H           24.259          4.801 
      8       H           24.260          4.801 
      9       H           24.260          4.800 
     10       H           24.259          4.801 
     11       H           24.260          4.801 


NMR shielding tensor and spin rotation calculation done in   0.1 sec 

Maximum memory used throughout the entire PROP-calculation: 8.2 MB

--------------------------------
SUGGESTED CITATIONS FOR THIS RUN
--------------------------------

Below you find a list of papers that are relevant to this ORCA run
We neither can nor want to force you to cite these papers, but we appreciate if you do
You receive ORCA, which is the product of decades of hard work by many enthusiastic individuals, for free
The only thing we kindly ask in return is that you cite our papers,
We deeply appreciate it, if you show your appreciation for ORCA by not just citing the generic ORCA reference.

Please note that relegating all ORCA citations to the supporting information does *not* help us.
SI sections are not indexed - citations you put there will not count into any citation statistics
But we need these citations in order to attract the funding resources that allow us to do what we are doing

Therefore, if you are a happy ORCA user, please consider citing a few of the papers listed below in the main body of your paper

In addition to the list printed below, the program has created the file benzene-opt-nmr.bibtex that contains the list in bibtex format
You can import this file easily into all common literature databanks and citation aid programs

It goes without saying that in many instances, there are alternative algorithms to achieve similar
results as the ones you have gotten from ORCA. It is, of course, also the case that in some instances
ORCA just re-implements algorithms worked out by others. We are fully aware of that and we are also
fully appreciative of our colleagues work. Hence this citation list should not be read as indicating
that the listed papers, which are focused on our own work, are the only ones worth citing. It simply
meant to make it easier for users to cite ORCA specific papers. It is not a substitute for doing your
own literature research and citing the relevant literature in a scientifically appropriate manner.

List of essential papers. We consider these as the minimum necessary citations

  1. Neese, F.
     Software update: the ORCA program system, version 6.0
     WIRES Comput. Molec. Sci. 2025 15(1), e70019
     doi.org/10.1002/wcms.70019

List of papers to cite with high priority. The work reported in these papers was absolutely
necessary for this run to complete.
Our perspective: the developers of density functionals and basis sets usually get cited in chemistry papers
Good! But without the algorithms to do something with them, the functionals or basis sets would not do anything.
Hence, in our opinion, the algorithm design and method developments papers are equally worthy of getting cited

  1. Neese, F.
     An improvement of the resolution of the identity approximation for the formation of the Coulomb matrix
     J. Comp. Chem. 2003 24(14), 1740-1747
     doi.org/10.1002/jcc.10318
  2. Neese, F.; Wennmohs, F.; Hansen, A.; Becker, U.
     Efficient, approximate and parallel Hartree-Fock and hybrid DFT calculations. A 'chain-of-spheres' algorithm for the Hartree-Fock exchange
     Chem. Phys. 2009 356(1-3), 98-109
     doi.org/10.1016/j.chemphys.2008.10.036
  3. Stoychev, G.L.; Auer, A.A.; Izsak, R.; Neese, F.
     Self-Consistent Field Calculation of Nuclear Magnetic Resonance Chemical Shielding Constants Using Gauge-Including Atomic Orbitals and Approximate Two-Electron Integrals
     J. Chem. Theory Comput. 2018 14(2), 619-637
     doi.org/10.1021/acs.jctc.7b01006
  4. Helmich-Paris, B.; de Souza, B.; Neese, F.; Izsák, R.
     An improved chain of spheres for exchange algorithm
     J. Chem. Phys. 2021 155(10), 104109
     doi.org/10.1063/5.0058766
  5. Neese, F.
     The SHARK Integral Generation and Digestion System
     J. Comp. Chem. 2022 44(3), 381
     doi.org/10.1002/jcc.26942

List of suggested additional citations. These are papers that are important in the 'surrounding' of 
of this run, or papers that preceded the highly important papers. If you like your results we are grateful for a citation.

  1. Izsak, R.; Neese, F.
     An overlap fitted chain of spheres exchange method
     J. Chem. Phys. 2011 135 , 144105
     doi.org/10.1063/1.3646921
  2. Izsak, R.; Hansen, A.; Neese, F.
     The resolution of identity and chain of spheres approximations for the LPNO-CCSD singles Fock term
     Molec. Phys. 2012 110 , 2413-2417
     doi.org/10.1080/00268976.2012.687466
  3. Neese, F.
     The ORCA program system
     WIRES Comput. Molec. Sci. 2012 2(1), 73-78
     doi.org/10.1002/wcms.81
  4. Izsak, R.; Neese, F.; Klopper, W.
     Robust fitting techniques in the chain of spheres approximation to the Fock exchange: The role of the complementary space
     J. Chem. Phys. 2013 139 , 
     doi.org/10.1063/1.4819264
  5. Neese, F.
     Software update: the ORCA program system, version 4.0
     WIRES Comput. Molec. Sci. 2018 8(1), 1-6
     doi.org/10.1002/wcms.1327
  6. Neese, F.; Wennmohs, F.; Becker, U.; Riplinger, C.
     The ORCA quantum chemistry program package
     J. Chem. Phys. 2020 152(22), 224108
     doi.org/10.1063/5.0004608
  7. Neese, F.
     Software update: The ORCA program system—Version 5.0
     WIRES Comput. Molec. Sci. 2022 12(1), e1606
     doi.org/10.1002/wcms.1606

List of optional additional citations

  1. Neese, F.
     Approximate second-order SCF convergence for spin unrestricted wavefunctions
     Chem. Phys. Lett. 2000 325(1-3), 93-98
     doi.org/10.1016/s0009-2614(00)00662-x

Timings for individual modules:

Sum of individual times          ...        8.876 sec (=   0.148 min)
Startup calculation              ...        0.894 sec (=   0.015 min)  10.1 %
SCF iterations                   ...        4.629 sec (=   0.077 min)  52.1 %
Property integrals               ...        2.038 sec (=   0.034 min)  23.0 %
SCF Response                     ...        0.850 sec (=   0.014 min)   9.6 %
Property calculations            ...        0.466 sec (=   0.008 min)   5.3 %
                             ****ORCA TERMINATED NORMALLY****
TOTAL RUN TIME: 0 days 0 hours 0 minutes 9 seconds 368 msec
