
                                 *****************
                                 * O   R   C   A *
                                 *****************

                                            #,                                       
                                            ###                                      
                                            ####                                     
                                            #####                                    
                                            ######                                   
                                           ########,                                 
                                     ,,################,,,,,                         
                               ,,#################################,,                 
                          ,,##########################################,,             
                       ,#########################################, ''#####,          
                    ,#############################################,,   '####,        
                  ,##################################################,,,,####,       
                ,###########''''           ''''###############################       
              ,#####''   ,,,,##########,,,,          '''####'''          '####       
            ,##' ,,,,###########################,,,                        '##       
           ' ,,###''''                  '''############,,,                           
         ,,##''                                '''############,,,,        ,,,,,,###''
      ,#''                                            '''#######################'''  
     '                                                          ''''####''''         
             ,#######,   #######,   ,#######,      ##                                
            ,#'     '#,  ##    ##  ,#'     '#,    #''#        ,####,    ,#,          
            ##       ##  ##   ,#'  ##            #'  '#       #'       ,# #          
            ##       ##  #######   ##           ,######,      #####,      #          
            '#,     ,#'  ##    ##  '#,     ,#' ,#      #,     #,   #      #          
             '#######'   ##     ##  '#######'  #'      '#     '####' #    #          



                #########################################################
                #                        -***-                          #
                #          Department of theory and spectroscopy        #
                #                                                       #
                #                      Frank Neese                      #
                #                                                       #
                #     Directorship, Architecture, Infrastructure        #
                #                    SHARK, DRIVERS                     #
                #        Core code/Algorithms in most modules           #
                #                                                       #
                #        Max Planck Institute fuer Kohlenforschung      #
                #                Kaiser Wilhelm Platz 1                 #
                #                 D-45470 Muelheim/Ruhr                 #
                #                      Germany                          #
                #                                                       #
                #                  All rights reserved                  #
                #                        -***-                          #
                #########################################################


                         Program Version 6.1.1  -  RELEASE   -
                                (GIT: $487d211c$)
                          ($2025-11-21 10:33:24 +0100$)


 With contributions from (in alphabetic order):
[Max-Planck-Institut fuer Kohlenforschung]                               
  Daniel Aravena         : Magnetic Suceptibility                        
  Michael Atanasov       : Ab Initio Ligand Field Theory (pilot matlab implementation)
  Alexander A. Auer      : GIAO ZORA, VPT2 properties, NMR spectrum      
  Ute Becker             : All parallelization in ORCA, NUMFREQ, NUMCALC 
  Giovanni Bistoni       : ED, misc. LED, open-shell LED, HFLD           
  Dmytro Bykov           : pre 5.0 version of the SCF Hessian            
  Marcos Casanova-Páez   : Triplet and SCS-CIS(D). UHF-(DLPNO)-IP/EA/STEOM-CCSD. UHF-CVS-IP/STEOM-CCSD   
  Vijay G. Chilkuri      : MRCI spin determinant printing, contributions to CSF-ICE 
  Pauline Colinet        : FMM embedding                                 
  Dipayan Datta          : RHF DLPNO-CCSD density                        
  Achintya Kumar Dutta   : EOM-CC, STEOM-CC                              
  Nicolas Foglia         : Exact transition moments, OPA infrastructure, MCD improvements    
  Dmitry Ganyushin       : Spin-Orbit,Spin-Spin,Magnetic field MRCI      
  Miquel Garcia-Rates    : C-PCM and meta-GGA Hessian, CCSD/C-PCM, Gaussian charge scheme 
  Tiago L. C. Gouveia    : GS-ROHF, GS-ROCIS                             
  Yang Guo               : DLPNO-NEVPT2, F12-NEVPT2, CIM, IAO-localization        
  Andreas Hansen         : Spin unrestricted coupled pair/coupled cluster methods 
  Ingolf Harden          : AUTO-CI MPn and infrastructure                
  Benjamin Helmich-Paris : MC-RPA, TRAH-(SCF,CASSCF), AVAS, COSX integrals, SCF dyn. polar., MC-PDFT, srDFT 
  Lee Huntington         : MR-EOM, pCC                                   
  Robert Izsak           : Overlap fitted RIJCOSX, COSX-SCS-MP3, EOM     
  Riya Kayal             : Wick's Theorem for AUTO-CI, AUTO-CI UHF-CCSDT 
  Emily Kempfer          : AUTO-CI RHF CISDT and CCSDT, approximate NEVPT4
  Christian Kollmar      : KDIIS, OOCD, Brueckner-CCSD(T), CCSD density, CASPT2, CASPT2-K, improved NEVPT2 
  Axel Koslowski         : Symmetry handling                             
  Simone Kossmann        : meta-GGA functionals, TD-DFT gradient, OOMP2, (MP2 Hessian; deprecated post 5.0) 
  Lucas Lang             : DCDCAS, Hyperfine gauge corrections, ICE-SOC+SSC
  Marvin Lechner         : AUTO-CI (C++ implementation), FIC-MRCC        
  Spencer Leger          : CASSCF response                               
  Dagmar Lenk            : GEPOL surface, SMD, ORCA-2-JSON               
  Dimitrios Liakos       : Extrapolation schemes; Compound Job, Property file
  Dimitrios Manganas     : Further ROCIS development; embedding schemes. LFT, Crystal Embedding 
  Dimitrios Pantazis     : SARC Basis sets                               
  Anastasios Papadopoulos: AUTO-CI, single reference methods and gradients 
  Taras Petrenko         : pre 6.0 DFT Hessian and TD-DFT gradient,  ECA, NRVS 
  Petra Pikulova         : Analytic Raman intensities                    
  Peter Pinski           : DLPNO-MP2, DLPNO-MP2 Gradient                 
  Shashank Vittal Rao    : ES-AILFT, MagRelax                            
  Christoph Reimann      : Effective Core Potentials                     
  Marius Retegan         : Local ZFS, SOC                                
  Christoph Riplinger    : Optimizer, TS searches, QM/MM, DLPNO-CCSD(T), (RO)-DLPNO pert. Triples 
  Michael Roemelt        : Original ROCIS implementation, recursive CI coupling coefficients
  Masaaki Saitow         : Open-shell DLPNO-CCSD energy and density      
  Barbara Sandhoefer     : DKH picture change effects                    
  Yorick L. A. Schmerwitz: GMF and freeze-and-release deltaSCF, NEB S-IDPP initial path                    
  Kantharuban Sivalingam : CASSCF convergence/infrastructure, NEVPT2, NEVPT3, NEVPT4(SD), FIC-MRCI and CEPA variants
  Bernardo de Souza      : ESD, SOC TD-DFT                               
  Georgi L. Stoychev     : AutoAux, RI-MP2 NMR, DLPNO-MP2 response, X2C  
  Van Anh Tran           : RI-MP2 g-tensors                              
  Willem Van den Heuvel  : Paramagnetic NMR                              
  Zikuan Wang            : NOTCH, Electric field optimization            
  Frank Wennmohs         : Technical directorship and infrastructure     
  Hang Xu                : AUTO-CI-Response properties                   
                                                                         
[FACCTs GmbH]                                                            
  Markus Bursch, Nicolas Foglia, Miquel Garcia-Rates, Ingolf Harden, Hagen Neugebauer, Anastasios Papadopoulos, 
  Christoph Riplinger, Bernardo de Souza, Georgi L. Stoychev                                                    
                                                                 
  APM, various basis sets, CI-OPT, improved COSX, DLPNO-Multilevel,           
  DOCKER, DRACO, updates on ESD, Fragmentator, GOAT, IRC, LR-CPCM, L-BFGS, MBIS, meta-GGA TD-DFT gradient, ML-optimized integration grids, 
  MM, NACMEs, nearIR, NEB, NEB-TS, NL-DFT gradient (VV10), 2- and 3-layer-ONIOM, interface openCOSMO-RS, QMMM,   
  Crystal-QMMM, RESP, rigid body optimization, SF, symmetry and pop. for TD-DFT, various functionals, SOLVATOR                                   
                                                                         
[Other institutions]                                                     
  V. Asgeirsson          : NEB                                           
  Christoph Bannwarth    : sTDA-DFT, sTD-DFT, PBEh-3c, B97-3c, D3        
  Giovanni Bistoni       : ETS/NOCV, ADLD/ADEX, COVALED                  
  Martin Brehm           : Molecular dynamics                            
  Ronald Cardenas        : ETS/NOCV                                      
  Martina Colucci        : COVALED                                       
  Sebastian Ehlert       : rSCAN, r2SCAN, r2SCAN-3c, D4, dhf basis sets  
  Marvin Friede          : D4 for Fr, Ra, Ac-Lr                          
  Lars Goerigk           : TD-DFT with DH, B97 family of functionals     
  Stefan Grimme          : VdW corrections, initial TS optimization, DFT functionals, gCP, sTDA/sTD-DF 
  Waldemar Hujo          : DFT-NL                                        
  H. Jonsson             : NEB                                           
  Holger Kruse           : gCP                                           
  Marcel Mueller         : wB97X-3c, vDZP basis set                      
  Hagen Neugebauer       : wr2SCAN, Native XTB                           
  Gianluca Regni         : ADLD/ADEX                                     
  Tobias Risthaus        : pre 6.0 range-separated hybrid DFT and stability analysis
  Lukas Wittmann         : regularized MP2, r2SCAN double-hybrids, wr2SCAN        
                                                                         
We gratefully acknowledge several colleagues who have allowed us to      
interface, adapt or use parts of their codes:                            
  Ed Valeev, F. Pavosevic, A. Kumar             : LibInt (2-el integral package), F12 methods 
  Garnet Chan, S. Sharma, J. Yang, R. Olivares  : DMRG                   
  Ulf Ekstrom                                   : XCFun DFT Library      
  Mihaly Kallay                                 : mrcc  (arbitrary order and MRCC methods)
  Frank Weinhold                                : gennbo (NPA and NBO analysis)           
  Simon Mueller                                 : openCOSMO-RS                            
  Christopher J. Cramer and Donald G. Truhlar   : smd solvation model                     
  S Lehtola, MJT Oliveira, MAL Marques          : LibXC Library                           
  Liviu Ungur et al                             : ANISO software                          


 Your calculation uses the libint2 library for the computation of 2-el integrals
 For citations please refer to: http://libint.valeyev.net

 Your ORCA version has been built with support for libXC version: 7.0.0
 For citations please refer to: https://libxc.gitlab.io

 This ORCA versions uses:
   CBLAS   interface :  Fast vector & matrix operations
   LAPACKE interface :  Fast linear algebra routines
   SCALAPACK package :  Parallel linear algebra routines
   Shared memory     :  Shared parallel matrices
   BLAS/LAPACK       :  OpenBLAS 0.3.29  USE64BITINT DYNAMIC_ARCH NO_AFFINITY Cooperlake SINGLE_THREADED
        Core in use  :  Cooperlake
   Copyright (c) 2011-2014, The OpenBLAS Project


  ***********************************
  * Starting time: Thu Apr 23 06:39:26 2026
  * Host name:     DESKTOP-DC1WS01
  * Process ID:    368479
  * Working dir.:  /mnt/work-disk/work/test/benzene-opt-ene.res
  ***********************************

NOTE: MaxCore=2000 MB was set to SCF,MP2,MDCI,CIPSI,MRCI,RASCI and CIS
      => If you want to overwrite this, your respective input block should be placed after the MaxCore statement
Warning: RI is on but no J-basis has been assigned. Assigning Def2/J (nothing to worry about!)
================================================================================

----- Orbital basis set information -----
Your calculation utilizes the basis: def2-SVP
   F. Weigend and R. Ahlrichs, Phys. Chem. Chem. Phys. 7, 3297 (2005).

----- AuxJ basis set information -----
Your calculation utilizes the auxiliary basis: def2/J
   H-Rn: F. Weigend, Phys. Chem. Chem. Phys. 8, 1057 (2006).
   Fr-Lr: K. Eichkorn, F. Weigend, O. Treutler, R. Ahlrichs; Theor. Chem. Acc. 97, 119 (1997).

================================================================================
                                        WARNINGS
                       Please study these warnings very carefully!
================================================================================


================================================================================
                                       INPUT FILE
================================================================================
NAME = benzene-opt-ene.inp
|  1> %pal nprocs 4 end
|  2> %maxcore 2000
|  3> 
|  4> ! B3LYP def2-SVP SP
|  5> 
|  6> %output
|  7>   Print[P_Basis] 2
|  8>   Print[P_Mos] 1
|  9> end
| 10> 
| 11> * xyz 0 1
| 12>   C        0.805933    -1.143600    -0.008261
| 13>   C        1.393065     0.126183    -0.028226
| 14>   C        0.587147     1.269771    -0.019965
| 15>   C       -0.805933     1.143599     0.008262
| 16>   C       -1.393065    -0.126184     0.028225
| 17>   C       -0.587147    -1.269772     0.019964
| 18>   H        1.435961    -2.037509    -0.014772
| 19>   H        2.482025     0.224848    -0.050244
| 20>   H        1.046066     2.262320    -0.035512
| 21>   H       -1.435958     2.037511     0.014773
| 22>   H       -2.482026    -0.224847     0.050244
| 23>   H       -1.046065    -2.262321     0.035513
| 24> *
| 25> 
| 26>                          ****END OF INPUT****
================================================================================

                       ****************************
                       * Single Point Calculation *
                       ****************************

---------------------------------
CARTESIAN COORDINATES (ANGSTROEM)
---------------------------------
  C      0.805933   -1.143600   -0.008261
  C      1.393065    0.126183   -0.028226
  C      0.587147    1.269771   -0.019965
  C     -0.805933    1.143599    0.008262
  C     -1.393065   -0.126184    0.028225
  C     -0.587147   -1.269772    0.019964
  H      1.435961   -2.037509   -0.014772
  H      2.482025    0.224848   -0.050244
  H      1.046066    2.262320   -0.035512
  H     -1.435958    2.037511    0.014773
  H     -2.482026   -0.224847    0.050244
  H     -1.046065   -2.262321    0.035513

----------------------------
CARTESIAN COORDINATES (A.U.)
----------------------------
  NO LB      ZA    FRAG     MASS         X           Y           Z
   0 C     6.0000    0    12.011    1.522993   -2.161091   -0.015611
   1 C     6.0000    0    12.011    2.632511    0.238451   -0.053339
   2 C     6.0000    0    12.011    1.109547    2.399519   -0.037728
   3 C     6.0000    0    12.011   -1.522993    2.161089    0.015613
   4 C     6.0000    0    12.011   -2.632511   -0.238453    0.053338
   5 C     6.0000    0    12.011   -1.109547   -2.399521    0.037726
   6 H     1.0000    0     1.008    2.713573   -3.850334   -0.027915
   7 H     1.0000    0     1.008    4.690348    0.424901   -0.094947
   8 H     1.0000    0     1.008    1.976778    4.275165   -0.067108
   9 H     1.0000    0     1.008   -2.713567    3.850338    0.027917
  10 H     1.0000    0     1.008   -4.690349   -0.424899    0.094947
  11 H     1.0000    0     1.008   -1.976776   -4.275167    0.067110

--------------------------------
INTERNAL COORDINATES (ANGSTROEM)
--------------------------------
 C      0   0   0     0.000000000000     0.00000000     0.00000000
 C      1   0   0     1.399096656324     0.00000000     0.00000000
 C      2   1   0     1.399058819560   120.00183076     0.00000000
 C      3   2   1     1.399066840259   119.99879147     0.00000000
 C      4   3   2     1.399096627786   119.99937653     0.00000000
 C      5   4   3     1.399058819560   120.00183200     0.00000000
 H      1   2   3     1.093641154212   119.99896310   179.99683510
 H      2   1   3     1.093642288936   120.00131259   179.99717922
 H      3   2   1     1.093618706484   120.00299060   179.99645890
 H      4   3   2     1.093641878080   120.00144008   179.99683026
 H      5   4   3     1.093643124356   120.00120254   180.00278728
 H      6   5   4     1.093618315285   120.00303657   180.00332439

---------------------------
INTERNAL COORDINATES (A.U.)
---------------------------
 C      0   0   0     0.000000000000     0.00000000     0.00000000
 C      1   0   0     2.643909515338     0.00000000     0.00000000
 C      2   1   0     2.643838014216   120.00183076     0.00000000
 C      3   2   1     2.643853171141   119.99879147     0.00000000
 C      4   3   2     2.643909461408   119.99937653     0.00000000
 C      5   4   3     2.643838014216   120.00183200     0.00000000
 H      1   2   3     2.066682270246   119.99896310   179.99683510
 H      2   1   3     2.066684414564   120.00131259   179.99717922
 H      3   2   1     2.066639850187   120.00299060   179.99645890
 H      4   3   2     2.066683638158   120.00144008   179.99683026
 H      5   4   3     2.066685993279   120.00120254   180.00278728
 H      6   5   4     2.066639110928   120.00303657   180.00332439

---------------------
BASIS SET INFORMATION
---------------------
There are 2 groups of distinct atoms

 Group   1 Type C   : 7s4p1d contracted to 3s2p1d pattern {511/31/1}
 Group   2 Type H   : 4s1p contracted to 2s1p pattern {31/1}

Atom   0C    basis set group =>   1
Atom   1C    basis set group =>   1
Atom   2C    basis set group =>   1
Atom   3C    basis set group =>   1
Atom   4C    basis set group =>   1
Atom   5C    basis set group =>   1
Atom   6H    basis set group =>   2
Atom   7H    basis set group =>   2
Atom   8H    basis set group =>   2
Atom   9H    basis set group =>   2
Atom  10H    basis set group =>   2
Atom  11H    basis set group =>   2

-------------------------
BASIS SET IN INPUT FORMAT
-------------------------

 # Basis set for element : H 
 NewGTO H 
 S 3 
   1      13.0107010000      0.0334854848
   2       1.9622572000      0.2347218709
   3       0.4445379600      0.8137702853
 S 1 
   1       0.1219496200      1.0000000000
 P 1 
   1       0.8000000000      1.0000000000
  end;

 # Basis set for element : C 
 NewGTO C 
 S 5 
   1    1238.4016938000      0.0055173650
   2     186.2900499200      0.0410888285
   3      42.2511763460      0.1822538213
   4      11.6765579320      0.4682845944
   5       3.5930506482      0.4457581734
 S 1 
   1       0.4024514736      1.0000000000
 S 1 
   1       0.1309018267      1.0000000000
 P 3 
   1       9.4680970621      0.0568883320
   2       2.0103545142      0.3129405934
   3       0.5477100471      0.7606501651
 P 1 
   1       0.1526861379      1.0000000000
 D 1 
   1       0.8000000000      1.0000000000
  end;

---------------------------------
AUXILIARY/J BASIS SET INFORMATION
---------------------------------
There are 2 groups of distinct atoms

 Group   1 Type C   : 12s5p4d2f1g contracted to 6s4p3d1f1g pattern {711111/2111/211/2/1}
 Group   2 Type H   : 5s2p1d contracted to 3s1p1d pattern {311/2/1}

Atom   0C    basis set group =>   1
Atom   1C    basis set group =>   1
Atom   2C    basis set group =>   1
Atom   3C    basis set group =>   1
Atom   4C    basis set group =>   1
Atom   5C    basis set group =>   1
Atom   6H    basis set group =>   2
Atom   7H    basis set group =>   2
Atom   8H    basis set group =>   2
Atom   9H    basis set group =>   2
Atom  10H    basis set group =>   2
Atom  11H    basis set group =>   2

-------------------------------------
AUXILIARY/J BASIS SET IN INPUT FORMAT
-------------------------------------

 # Auxiliary/J basis set for element : H 
 NewAuxJGTO H 
 S 3 
   1      15.6752927000      0.1007184237
   2       3.6063578000      0.3404257499
   3       1.2080016000      0.6491996172
 S 1 
   1       0.4726794000      1.0000000000
 S 1 
   1       0.2018100000      1.0000000000
 P 2 
   1       2.0281365000      0.5596620919
   2       0.5358730000      0.5596620919
 D 1 
   1       2.2165124000      1.0000000000
  end;

 # Auxiliary/J basis set for element : C 
 NewAuxJGTO C 
 S 7 
   1    1861.0916331000      0.0134602335
   2     642.9939764000      0.0299160374
   3     235.1105725000      0.1008649584
   4      90.7028894000      0.2370970548
   5      36.7794552000      0.3924037254
   6      15.6046273000      0.3195862154
   7       6.8907294000      0.0530104441
 S 1 
   1       3.1478850000     -1.0000000000
 S 1 
   1       1.4777287000      1.0000000000
 S 1 
   1       0.7076466000      1.0000000000
 S 1 
   1       0.3430122000      1.0000000000
 S 1 
   1       0.1669453000      1.0000000000
 P 2 
   1      13.5472892000     -0.6769313712
   2       5.4669419000     -0.3779500978
 P 1 
   1       2.1751721000      1.0000000000
 P 1 
   1       0.8582194000      1.0000000000
 P 1 
   1       0.3376720000      1.0000000000
 D 2 
   1       5.9287253000     -0.3533329857
   2       1.9809209000     -0.7456525731
 D 1 
   1       0.8055417000     -1.0000000000
 D 1 
   1       0.3531244000     -1.0000000000
 F 2 
   1       1.6755626000      0.6311076882
   2       0.5997536000      0.4968166032
 G 1 
   1       1.0024600000     -1.0000000000
  end;



           ************************************************************
           *        Program running with 4 parallel MPI-processes     *
           *              working on a common directory               *
           ************************************************************
------------------------------------------------------------------------------
                             ORCA STARTUP CALCULATIONS
                           -- RI-GTO INTEGRALS CHOSEN --
------------------------------------------------------------------------------
------------------------------------------------------------------------------
                   ___                                                        
                  /   \      - P O W E R E D   B Y -                         
                 /     \                                                     
                 |  |  |   _    _      __       _____    __    __             
                 |  |  |  | |  | |    /  \     |  _  \  |  |  /  |          
                  \  \/   | |  | |   /    \    | | | |  |  | /  /          
                 / \  \   | |__| |  /  /\  \   | |_| |  |  |/  /          
                |  |  |   |  __  | /  /__\  \  |    /   |      \           
                |  |  |   | |  | | |   __   |  |    \   |  |\   \          
                \     /   | |  | | |  |  |  |  | |\  \  |  | \   \       
                 \___/    |_|  |_| |__|  |__|  |_| \__\ |__|  \__/        
                                                                              
                      - O R C A' S   B I G   F R I E N D -                    
                                      &                                       
                       - I N T E G R A L  F E E D E R -                       
                                                                              
 v1 FN, 2020, v2 2021, v3 2022-2024                                           
------------------------------------------------------------------------------


----------------------
SHARK INTEGRAL PACKAGE
----------------------

Number of atoms                             ...     12
Number of basis functions                   ...    114
Number of shells                            ...     54
Maximum angular momentum                    ...      2
Integral batch strategy                     ... SHARK/LIBINT Hybrid
RI-J (if used) integral strategy            ... SPLIT-RIJ (Revised 2003 algorithm where possible)
Printlevel                                  ...      1
Contraction scheme used                     ... SEGMENTED contraction
Prescreening option                         ... SCHWARTZ
   Thresh                                   ... 1.000e-10
   Tcut                                     ... 1.000e-11
   Tpresel                                  ... 1.000e-11 
Coulomb Range Separation                    ... NOT USED
Exchange Range Separation                   ... NOT USED
Multipole approximations                    ... NOT USED
Finite Nucleus Model                        ... NOT USED
CABS basis                                  ... NOT available
Auxiliary Coulomb fitting basis             ... AVAILABLE
   # of basis functions in Aux-J            ...    360
   # of shells in Aux-J                     ...    120
   Maximum angular momentum in Aux-J        ...      4
Auxiliary J/K fitting basis                 ... NOT available
Auxiliary Correlation fitting basis         ... NOT available
Auxiliary 'external' fitting basis          ... NOT available

Checking pre-screening integrals            ... done (  0.0 sec) Dimension = 54
   => SHARK Basis and OBASIS are compatible. Storing Pre-screening
Shell pair information
Shell pair cut-off parameter TPreSel        ...   1.0e-11
Total number of shell pairs                 ...      1485
Shell pairs after pre-screening             ...      1455
Total number of primitive shell pairs       ...      5349
Primitive shell pairs kept                  ...      4101
          la=0 lb=0:    456 shell pairs
          la=1 lb=0:    522 shell pairs
          la=1 lb=1:    168 shell pairs
          la=2 lb=0:    180 shell pairs
          la=2 lb=1:    108 shell pairs
          la=2 lb=2:     21 shell pairs

Checking whether 4 symmetric matrices of dimension 114 fit in memory
:Max Core in MB      =   2000.00
 MB in use           =      5.19
 MB left             =   1994.81
 MB needed           =      0.20
 Data fit in memory  = YES
Calculating RI/J V-Matrix + Cholesky decomp.... done (  0.0 sec)
Calculating Nuclear repulsion               ... done (  0.0 sec) ENN=    202.697870880646 Eh

Diagonalization of the overlap matrix:
Smallest eigenvalue                        ... 3.243e-04
Time for diagonalization                   ...    0.001 sec
Threshold for overlap eigenvalues          ... 1.000e-07
Number of eigenvalues below threshold      ... 0
Time for construction of square roots      ...    0.001 sec
Total time needed                          ...    0.003 sec

-------------------
DFT GRID GENERATION
-------------------

General Integration Accuracy     IntAcc      ... 4.388
Radial Grid Type                 RadialGrid  ... OptM3 with GC (2021)
Angular Grid (max. ang.)         AngularGrid ... 4 (Lebedev-302)
Angular grid pruning method      GridPruning ... 4 (adaptive)
Weight generation scheme         WeightScheme... mBecke (2022)
Basis function cutoff            BFCut       ... 1.0000e-10
Integration weight cutoff        WCut        ... 1.0000e-14
Partially contracted basis set               ... off
Rotationally invariant grid construction     ... off
Angular grids for H and He will be reduced by one unit

Total number of grid points                  ...    55504
Total number of batches                      ...      870
Average number of points per batch           ...       63
Average number of grid points per atom       ...     4625

--------------------
COSX GRID GENERATION
--------------------

GRIDX 1
-------
General Integration Accuracy     IntAcc      ... 3.816
Radial Grid Type                 RadialGrid  ... OptM3 with GC (2021)
Angular Grid (max. ang.)         AngularGrid ... 1 (Lebedev-50)
Angular grid pruning method      GridPruning ... 4 (adaptive)
Weight generation scheme         WeightScheme... mBecke (2022)
Basis function cutoff            BFCut       ... 1.0000e-10
Integration weight cutoff        WCut        ... 1.0000e-14
Partially contracted basis set               ... on
Rotationally invariant grid construction     ... off
Angular grids for H and He will be reduced by one unit

Total number of grid points                  ...     7122
Total number of batches                      ...       60
Average number of points per batch           ...      118
Average number of grid points per atom       ...      594
UseSFitting                                  ... on

GRIDX 2
-------
General Integration Accuracy     IntAcc      ... 4.020
Radial Grid Type                 RadialGrid  ... OptM3 with GC (2021)
Angular Grid (max. ang.)         AngularGrid ... 2 (Lebedev-110)
Angular grid pruning method      GridPruning ... 4 (adaptive)
Weight generation scheme         WeightScheme... mBecke (2022)
Basis function cutoff            BFCut       ... 1.0000e-10
Integration weight cutoff        WCut        ... 1.0000e-14
Partially contracted basis set               ... on
Rotationally invariant grid construction     ... off
Angular grids for H and He will be reduced by one unit

Total number of grid points                  ...    15488
Total number of batches                      ...      126
Average number of points per batch           ...      122
Average number of grid points per atom       ...     1291
UseSFitting                                  ... on

GRIDX 3
-------
General Integration Accuracy     IntAcc      ... 4.338
Radial Grid Type                 RadialGrid  ... OptM3 with GC (2021)
Angular Grid (max. ang.)         AngularGrid ... 3 (Lebedev-194)
Angular grid pruning method      GridPruning ... 4 (adaptive)
Weight generation scheme         WeightScheme... mBecke (2022)
Basis function cutoff            BFCut       ... 1.0000e-10
Integration weight cutoff        WCut        ... 1.0000e-14
Partially contracted basis set               ... on
Rotationally invariant grid construction     ... off
Angular grids for H and He will be reduced by one unit

Total number of grid points                  ...    34060
Total number of batches                      ...      274
Average number of points per batch           ...      124
Average number of grid points per atom       ...     2838
UseSFitting                                  ... on
Grids setup in   0.4 sec
Initializing property integral containers    ... done (  0.0 sec)

SHARK setup successfully completed in   0.5 seconds

Maximum memory used throughout the entire STARTUP-calculation: 16.0 MB


           ************************************************************
           *        Program running with 4 parallel MPI-processes     *
           *              working on a common directory               *
           ************************************************************
-------------------------------------------------------------------------------
                                 ORCA GUESS
                   Start orbitals & Density for SCF / CASSCF
-------------------------------------------------------------------------------

------------
SCF SETTINGS
------------
Hamiltonian:
 Density Functional     Method          .... DFT(GTOs)
 Exchange Functional    Exchange        .... B88
   X-Alpha parameter    XAlpha          ....  0.666667
   Becke's b parameter  XBeta           ....  0.004200
 Correlation Functional Correlation     .... LYP
 LDA part of GGA corr.  LDAOpt          .... VWN-5
 Gradients option       PostSCFGGA      .... off
 Hybrid DFT is turned on
   Fraction HF Exchange ScalHFX         ....  0.200000
   Scaling of DF-GGA-X  ScalDFX         ....  0.720000
   Scaling of DF-GGA-C  ScalDFC         ....  0.810000
   Scaling of DF-LDA-C  ScalLDAC        ....  1.000000
   Perturbative correction              ....  0.000000
   NL short-range parameter             ....  4.800000
 RI-approximation to the Coulomb term is turned on
   Number of AuxJ basis functions       .... 360
   RIJ-COSX (HFX calculated with COS-X)).... on


General Settings:
 Integral files         IntName         .... benzene-opt-ene
 Hartree-Fock type      HFTyp           .... RHF
 Total Charge           Charge          ....    0
 Multiplicity           Mult            ....    1
 Number of Electrons    NEL             ....   42
 Basis Dimension        Dim             ....  114
 Nuclear Repulsion      ENuc            ....    202.6978708806 Eh

Convergence Acceleration:
 AO-DIIS                CNVDIIS         .... on
   Start iteration      DIISMaxIt       ....    12
   Startup error        DIISStart       ....  0.200000
   # of expansion vecs  DIISMaxEq       ....     5
   Bias factor          DIISBfac        ....   1.050
   Max. coefficient     DIISMaxC        ....  10.000
 MO-DIIS                CNVKDIIS        .... off
 Trust-Rad. Augm. Hess. CNVTRAH         .... auto
   Auto Start mean grad. ratio tolernc. ....  1.125000
   Auto Start start iteration           ....    50
   Auto Start num. interpolation iter.  ....    10
   Max. Number of Micro iterations      ....    24
   Max. Number of Macro iterations      .... Maxiter - #DIIS iter
   Number of Davidson start vectors     ....     2
   Converg. threshold    (grad. norm)   ....   5.000e-05
   Grad. Scal. Fac. for Micro threshold ....   0.100
   Minimum threshold for Micro iter.    ....   1.000e-02
   NR start threshold (gradient norm)   ....   1.000e-04
   Initial trust radius                 ....   0.400
   Minimum AH scaling param. (alpha)    ....   1.000
   Maximum AH scaling param. (alpha)    .... 1000.000
   Quad. conv. algorithm                .... NR
   White noise on init. David. guess    .... on
   Maximum white noise                  ....   0.010
   Pseudo random numbers                .... off
   Inactive MOs                         .... canonical
   Orbital update algorithm             .... Taylor
   Preconditioner                       .... Diag
   Full preconditioner red. dimension   ....   250
 SOSCF                 CNVSOSCF           .... on
   Start iteration     SOSCFMaxIt         ....   150
   Startup grad/error  SOSCFStart         ....  0.003300
   Hessian update      SOSCFHessUp        .... L-BFGS
   Autom. constraints  SOSCFAutoConstrain .... off
 Level Shifting         CNVShift        .... on
   Level shift para.    LevelShift      ....    0.2500
   Turn off err/grad.   ShiftErr        ....    0.0010
 Zerner damping         CNVZerner       .... off
 Static damping         CNVDamp         .... on
   Fraction old density DampFac         ....    0.7000
   Max. Damping (<1)    DampMax         ....    0.9800
   Min. Damping (>=0)   DampMin         ....    0.0000
   Turn off err/grad.   DampErr         ....    0.1000

SCF Procedure:
 Maximum # iterations   MaxIter         ....   125
 SCF integral mode      SCFMode         .... Direct
   Integral package                     .... SHARK and LIBINT hybrid scheme
 Reset frequency        DirectResetFreq ....    20
 Integral Threshold     Thresh          ....  1.000e-10 Eh
 Primitive CutOff       TCut            ....  1.000e-11 Eh

Convergence Tolerance:
 Convergence Check Mode ConvCheckMode   .... Total+1el-Energy
 Convergence forced     ConvForced      .... 0
 Energy Change          TolE            ....  1.000e-06 Eh
 1-El. energy change                    ....  1.000e-03 Eh
 Orbital Gradient       TolG            ....  5.000e-05
 Orbital Rotation angle TolX            ....  5.000e-05
 DIIS Error             TolErr          ....  1.000e-06

------------------------------
INITIAL GUESS: MODEL POTENTIAL
------------------------------
Loading Hartree-Fock densities                     ... done
Calculating cut-offs                               ... done
Initializing the effective Hamiltonian             ... done
Setting up the integral package (SHARK)            ... done
Starting the Coulomb interaction                   ... done (   0.0 sec)
Making the grid                                    ... done (   0.1 sec)
Mapping shells                                     ... done
Starting the XC term evaluation                    ... done (   0.0 sec)
  promolecular density results
     # of electrons  =     41.996695622
     EX              =    -32.591283486
     EC              =     -1.375923142
     EX+EC           =    -33.967206628
Transforming the Hamiltonian                       ... done (   0.0 sec)
Diagonalizing the Hamiltonian                      ... done (   0.0 sec)
Back transforming the eigenvectors                 ... done (   0.0 sec)
Now organizing SCF variables                       ... done
                      ------------------
                      INITIAL GUESS DONE (   0.1 sec)
                      ------------------
             **** ENERGY FILE WAS UPDATED (benzene-opt-ene.en.tmp) ****
Finished Guess after   0.2 sec
Maximum memory used throughout the entire GUESS-calculation: 7.7 MB


           ************************************************************
           *        Program running with 4 parallel MPI-processes     *
           *              working on a common directory               *
           ************************************************************

-------------------------------------------------------------------------------------------
                                      ORCA LEAN-SCF
                              memory conserving SCF solver
-------------------------------------------------------------------------------------------

----------------------------------------D-I-I-S--------------------------------------------
Iteration    Energy (Eh)           Delta-E    RMSDP     MaxDP     DIISErr   Damp  Time(sec)
-------------------------------------------------------------------------------------------
               ***  Starting incremental Fock matrix formation  ***
    1    -231.7990844027272317     0.00e+00  8.41e-03  4.89e-02  1.20e-01  0.700   0.4
    2    -231.8576004568486439    -5.85e-02  6.07e-03  3.28e-02  6.14e-02  0.700   0.3
                               ***Turning on AO-DIIS***
    3    -231.8836598762487426    -2.61e-02  2.78e-03  1.21e-02  2.75e-02  0.700   0.3
    4    -231.8986296696881766    -1.50e-02  5.22e-03  1.99e-02  1.56e-02  0.000   0.2
    5    -231.9304748148611282    -3.18e-02  5.77e-04  3.38e-03  4.64e-03  0.000   0.3
                              *** Initializing SOSCF ***
---------------------------------------S-O-S-C-F--------------------------------------
Iteration    Energy (Eh)           Delta-E    RMSDP     MaxDP     MaxGrad    Time(sec)
--------------------------------------------------------------------------------------
    6    -231.9306416375675042    -1.67e-04  2.39e-04  1.26e-03  1.01e-03     0.2
               *** Restarting incremental Fock matrix formation ***
    7    -231.9307001845018874    -5.85e-05  1.37e-04  8.48e-04  2.19e-04     0.4
    8    -231.9307006471578632    -4.63e-07  2.88e-05  1.86e-04  1.35e-04     0.3
                 **** Energy Check signals convergence ****

               *****************************************************
               *                     SUCCESS                       *
               *           SCF CONVERGED AFTER   8 CYCLES          *
               *****************************************************

Recomputing exchange energy using gridx3       ... done (    0.530 sec)
Old exchange energy                            :     -6.628075500 Eh
New exchange energy                            :     -6.628159428 Eh
Exchange energy change after final integration :     -0.000083927 Eh
Total energy after final integration           :   -231.930784926 Eh
             **** ENERGY FILE WAS UPDATED (benzene-opt-ene.en.tmp) ****

----------------
TOTAL SCF ENERGY
----------------

Total Energy       :       -231.93078492611488 Eh           -6311.15751 eV

Components:
Nuclear Repulsion  :        202.69787088064638 Eh            5515.68948 eV
Electronic Energy  :       -434.62857187929490 Eh          -11826.84471 eV
One Electron Energy:       -712.34056692978743 Eh          -19383.77228 eV
Two Electron Energy:        277.71199505049253 Eh            7556.92757 eV

Virial components:
Potential Energy   :       -461.23649641710324 Eh          -12550.88314 eV
Kinetic Energy     :        229.30571149098836 Eh            6239.72563 eV
Virial Ratio       :          2.01144791997573

DFT components:
N(Alpha)           :       20.999998555676 electrons
N(Beta)            :       20.999998555676 electrons
N(Total)           :       41.999997111353 electrons
E(X)               :      -26.301431633127 Eh       
E(C)               :       -1.631829551458 Eh       
E(XC)              :      -27.933261184586 Eh       

---------------
SCF CONVERGENCE
---------------

  Last Energy change         ...    4.6266e-07  Tolerance :   1.0000e-06
  Last MAX-Density change    ...    1.8618e-04  Tolerance :   1.0000e-05
  Last RMS-Density change    ...    2.8770e-05  Tolerance :   1.0000e-06
  Last DIIS Error            ...    1.0109e-03  Tolerance :   1.0000e-06
  Last Orbital Gradient      ...    1.3533e-04  Tolerance :   5.0000e-05
  Last Orbital Rotation      ...    1.0965e-04  Tolerance :   5.0000e-05


----------------
ORBITAL ENERGIES
----------------

  NO   OCC          E(Eh)            E(eV) 
   0   2.0000     -10.188343      -277.2389 
   1   2.0000     -10.188198      -277.2350 
   2   2.0000     -10.188186      -277.2346 
   3   2.0000     -10.187805      -277.2243 
   4   2.0000     -10.187795      -277.2240 
   5   2.0000     -10.187687      -277.2211 
   6   2.0000      -0.841741       -22.9049 
   7   2.0000      -0.733775       -19.9670 
   8   2.0000      -0.733774       -19.9670 
   9   2.0000      -0.593351       -16.1459 
  10   2.0000      -0.593344       -16.1457 
  11   2.0000      -0.517891       -14.0925 
  12   2.0000      -0.453230       -12.3330 
  13   2.0000      -0.444970       -12.1082 
  14   2.0000      -0.418529       -11.3887 
  15   2.0000      -0.418517       -11.3884 
  16   2.0000      -0.364936        -9.9304 
  17   2.0000      -0.342964        -9.3325 
  18   2.0000      -0.342956        -9.3323 
  19   2.0000      -0.252660        -6.8752 
  20   2.0000      -0.252649        -6.8749 
  21   0.0000      -0.005861        -0.1595 
  22   0.0000      -0.005854        -0.1593 
  23   0.0000       0.060182         1.6376 
  24   0.0000       0.101529         2.7627 
  25   0.0000       0.101531         2.7628 
  26   0.0000       0.139231         3.7887 
  27   0.0000       0.139255         3.7893 
  28   0.0000       0.151209         4.1146 
  29   0.0000       0.159893         4.3509 
  30   0.0000       0.289481         7.8772 
  31   0.0000       0.289515         7.8781 
*Only the first 10 virtual orbitals were printed.
------------------------------
MOLECULAR ORBITALS (RHF, ROHF)
------------------------------
                      0         1         2         3         4         5   
                 -10.18834 -10.18820 -10.18819 -10.18781 -10.18780 -10.18769
                   2.00000   2.00000   2.00000   2.00000   2.00000   2.00000
                  --------  --------  --------  --------  --------  --------
  0C   1s         0.406941 -0.450990  0.353340 -0.481219 -0.301859  0.399984
  0C   2s         0.016142 -0.020845  0.016404 -0.024852 -0.015681  0.022550
  0C   3s        -0.006146  0.003021 -0.002905  0.025549  0.016268 -0.028604
  0C   1pz       -0.000006 -0.000019 -0.000030  0.000023 -0.000040  0.000005
  0C   1px        0.000597  0.000631  0.001343 -0.000872  0.001690 -0.000439
  0C   1py       -0.000904  0.000985  0.000550 -0.000925  0.000971  0.000580
  0C   2pz       -0.000000 -0.000082 -0.000142 -0.000002  0.000058 -0.000012
  0C   2px       -0.000109  0.002474  0.006564 -0.001298 -0.003285  0.001264
  0C   2py        0.000245  0.005122  0.001943  0.004221  0.000962 -0.001987
  0C   1dz2      -0.000218  0.000471 -0.000397  0.001599  0.001023 -0.001983
  0C   1dxz       0.000002  0.000021  0.000004  0.000044  0.000052 -0.000070
  0C   1dyz       0.000011 -0.000010 -0.000010  0.000027 -0.000000 -0.000026
  0C   1dx2y2    -0.000246 -0.000441 -0.000870  0.000593 -0.000959  0.000082
  0C   1dxy      -0.000746  0.000614 -0.000037 -0.000254  0.000299  0.000188
  1C   1s         0.409730 -0.528956 -0.224306  0.505041 -0.255308 -0.397851
  1C   2s         0.016293 -0.024491 -0.010439  0.026119 -0.013273 -0.022452
  1C   3s        -0.006331  0.003837  0.001998 -0.026929  0.013819  0.028574
  1C   1pz       -0.000022  0.000013 -0.000004  0.000011  0.000007 -0.000015
  1C   1px        0.001074 -0.000444 -0.000347 -0.000179  0.000341  0.000730
  1C   1py        0.000126 -0.000723  0.001621 -0.001079 -0.002027  0.000045
  1C   2pz        0.000005  0.000081 -0.000007 -0.000095  0.000035  0.000048
  1C   2px       -0.000225 -0.002948 -0.002078  0.004310 -0.002478 -0.002323
  1C   2py       -0.000023 -0.003427  0.007396  0.001564  0.002049 -0.000315
  1C   1dz2      -0.000225  0.000564  0.000259 -0.001686  0.000868  0.001982
  1C   1dxz      -0.000024  0.000028  0.000016 -0.000058  0.000026  0.000063
  1C   1dyz       0.000000 -0.000003  0.000022 -0.000031 -0.000012  0.000023
  1C   1dx2y2     0.000774 -0.000561 -0.000032 -0.000148 -0.000155  0.000203
  1C   1dxy       0.000125  0.000295 -0.000962  0.000528  0.001049  0.000050
  2C   1s         0.394705 -0.072892 -0.559978 -0.028020  0.575816  0.411694
  2C   2s         0.015511 -0.003358 -0.025840 -0.001425  0.029681  0.023090
  2C   3s        -0.005562  0.000409  0.003488  0.001415 -0.030350 -0.028668
  2C   1pz       -0.000015 -0.000026  0.000011  0.000035  0.000006  0.000010
  2C   1px        0.000452  0.001573 -0.000448 -0.002087 -0.000218 -0.000303
  2C   1py        0.000990 -0.000811 -0.000406  0.000978 -0.000217 -0.000650
  2C   2pz        0.000004 -0.000116  0.000065 -0.000035 -0.000073 -0.000035
  2C   2px       -0.000152  0.007177 -0.002399  0.002219  0.002172  0.001008
  2C   2py       -0.000291 -0.003810 -0.002666 -0.001291  0.004453  0.002207
  2C   1dz2      -0.000175  0.000069  0.000569  0.000090 -0.001901 -0.001995
  2C   1dxz       0.000000  0.000021  0.000012 -0.000020 -0.000066 -0.000069
  2C   1dyz      -0.000017  0.000010  0.000016 -0.000008 -0.000021 -0.000019
  2C   1dx2y2    -0.000505 -0.000724  0.000451  0.000908  0.000070  0.000127
  2C   1dxy       0.000601 -0.000709 -0.000326  0.000770  0.000004 -0.000148
  3C   1s         0.406503  0.451056 -0.353708 -0.481753 -0.301723 -0.399490
  3C   2s         0.016122  0.020847 -0.016419 -0.024881 -0.015674 -0.022525
  3C   3s        -0.006141 -0.003019  0.002913  0.025583  0.016261  0.028577
  3C   1pz        0.000006 -0.000019 -0.000030 -0.000023  0.000040  0.000005
  3C   1px       -0.000597  0.000631  0.001343  0.000872 -0.001690 -0.000441
  3C   1py        0.000904  0.000986  0.000550  0.000926 -0.000971  0.000579
  3C   2pz        0.000000 -0.000082 -0.000142  0.000002 -0.000058 -0.000012
  3C   2px        0.000113  0.002474  0.006564  0.001299  0.003284  0.001263
  3C   2py       -0.000246  0.005122  0.001943 -0.004225 -0.000962 -0.001982
  3C   1dz2      -0.000217 -0.000471  0.000397  0.001601  0.001023  0.001982
  3C   1dxz       0.000002 -0.000021 -0.000004  0.000045  0.000052  0.000070
  3C   1dyz       0.000011  0.000010  0.000010  0.000027 -0.000000  0.000026
  3C   1dx2y2    -0.000246  0.000441  0.000870  0.000592 -0.000959 -0.000083
  3C   1dxy      -0.000746 -0.000614  0.000038 -0.000254  0.000299 -0.000188
  4C   1s         0.409707  0.529203  0.224016  0.505402 -0.255422  0.397176
  4C   2s         0.016292  0.024502  0.010428  0.026141 -0.013279  0.022417
  4C   3s        -0.006332 -0.003844 -0.001994 -0.026962  0.013827 -0.028539
  4C   1pz        0.000022  0.000013 -0.000004 -0.000011 -0.000007 -0.000015
  4C   1px       -0.001074 -0.000444 -0.000346  0.000180 -0.000341  0.000729
  4C   1py       -0.000124 -0.000723  0.001621  0.001079  0.002026  0.000044
  4C   2pz       -0.000005  0.000081 -0.000007  0.000095 -0.000035  0.000048
  4C   2px        0.000225 -0.002949 -0.002078 -0.004312  0.002479 -0.002317
  4C   2py        0.000029 -0.003427  0.007396 -0.001564 -0.002050 -0.000313
  4C   1dz2      -0.000225 -0.000565 -0.000259 -0.001688  0.000869 -0.001979
  4C   1dxz      -0.000024 -0.000028 -0.000016 -0.000058  0.000026 -0.000063
  4C   1dyz       0.000000  0.000003 -0.000022 -0.000031 -0.000012 -0.000023
  4C   1dx2y2     0.000773  0.000561  0.000031 -0.000149 -0.000155 -0.000203
  4C   1dxy       0.000126 -0.000295  0.000962  0.000528  0.001049 -0.000050
  5C   1s         0.395082  0.073030  0.559743 -0.028568  0.575859 -0.411530
  5C   2s         0.015528  0.003364  0.025831 -0.001456  0.029684 -0.023081
  5C   3s        -0.005563 -0.000410 -0.003487  0.001450 -0.030357  0.028658
  5C   1pz        0.000015 -0.000026  0.000011 -0.000035 -0.000006  0.000011
  5C   1px       -0.000453  0.001573 -0.000447  0.002086  0.000219 -0.000306
  5C   1py       -0.000990 -0.000811 -0.000406 -0.000979  0.000217 -0.000649
  5C   2pz       -0.000004 -0.000116  0.000065  0.000035  0.000073 -0.000035
  5C   2px        0.000148  0.007177 -0.002399 -0.002219 -0.002172  0.001010
  5C   2py        0.000291 -0.003810 -0.002667  0.001294 -0.004453  0.002204
  5C   1dz2      -0.000176 -0.000069 -0.000569  0.000093 -0.001902  0.001995
  5C   1dxz       0.000000 -0.000021 -0.000012 -0.000020 -0.000066  0.000069
  5C   1dyz      -0.000017 -0.000010 -0.000016 -0.000008 -0.000021  0.000019
  5C   1dx2y2    -0.000506  0.000724 -0.000451  0.000908  0.000070 -0.000128
  5C   1dxy       0.000601  0.000709  0.000325  0.000770  0.000004  0.000147
  6H   1s        -0.001744  0.002886 -0.002249  0.002593  0.001632 -0.001743
  6H   2s         0.002158 -0.001101  0.000914 -0.003399 -0.002152  0.004097
  6H   1pz       -0.000006  0.000017  0.000007  0.000007  0.000010 -0.000010
  6H   1px        0.000584 -0.001085  0.000021 -0.000829 -0.000754  0.000921
  6H   1py       -0.000822  0.000690 -0.001136  0.001401  0.000722 -0.001288
  7H   1s        -0.001759  0.003376  0.001424 -0.002725  0.001382  0.001731
  7H   2s         0.002182 -0.001327 -0.000597  0.003577 -0.001821 -0.004090
  7H   1pz       -0.000020  0.000027  0.000015 -0.000035  0.000016  0.000032
  7H   1px        0.001012 -0.001420 -0.000530  0.001687 -0.000883 -0.001571
  7H   1py        0.000088  0.000182 -0.000795  0.000262  0.000133 -0.000132
  8H   1s        -0.001682  0.000469  0.003594  0.000153 -0.003095 -0.001818
  8H   2s         0.002062 -0.000171 -0.001335 -0.000188  0.004066  0.004121
  8H   1pz       -0.000014  0.000015  0.000019 -0.000002 -0.000028 -0.000023
  8H   1px        0.000408 -0.000804 -0.000523  0.000175  0.000824  0.000678
  8H   1py        0.000876  0.000162 -0.001379 -0.000184  0.001753  0.001464
  9H   1s        -0.001741 -0.002887  0.002251  0.002595  0.001631  0.001740
  9H   2s         0.002157  0.001101 -0.000916 -0.003404 -0.002151 -0.004093
  9H   1pz        0.000006  0.000017  0.000007 -0.000007 -0.000010 -0.000010
  9H   1px       -0.000583 -0.001085  0.000021  0.000831  0.000754  0.000920
  9H   1py        0.000821  0.000690 -0.001137 -0.001402 -0.000721 -0.001287
 10H   1s        -0.001759 -0.003377 -0.001423 -0.002726  0.001383 -0.001727
 10H   2s         0.002182  0.001329  0.000595  0.003582 -0.001822  0.004085
 10H   1pz        0.000020  0.000027  0.000015  0.000035 -0.000016  0.000032
 10H   1px       -0.001012 -0.001421 -0.000529 -0.001689  0.000883 -0.001569
 10H   1py       -0.000088  0.000181 -0.000795 -0.000263 -0.000133 -0.000132
 11H   1s        -0.001685 -0.000469 -0.003593  0.000156 -0.003095  0.001817
 11H   2s         0.002063  0.000171  0.001334 -0.000193  0.004067 -0.004120
 11H   1pz        0.000014  0.000015  0.000019  0.000002  0.000028 -0.000023
 11H   1px       -0.000408 -0.000804 -0.000523 -0.000174 -0.000824  0.000678
 11H   1py       -0.000877  0.000162 -0.001378  0.000186 -0.001753  0.001463
                      6         7         8         9        10        11   
                  -0.84174  -0.73378  -0.73377  -0.59335  -0.59334  -0.51789
                   2.00000   2.00000   2.00000   2.00000   2.00000   2.00000
                  --------  --------  --------  --------  --------  --------
  0C   1s         0.119448  0.074908 -0.149170 -0.124523 -0.039745 -0.013321
  0C   2s        -0.228846 -0.148335  0.295368  0.257219  0.082120  0.026992
  0C   3s        -0.049867 -0.034351  0.068376  0.075782  0.024201  0.029296
  0C   1pz       -0.000394 -0.002118 -0.000872 -0.001617  0.003837 -0.001163
  0C   1px        0.038443  0.091481  0.027074  0.086258 -0.151390  0.113048
  0C   1py       -0.054538  0.048426  0.051063 -0.012336 -0.130052 -0.160410
  0C   2pz       -0.000091 -0.000732 -0.000311 -0.000355  0.001216 -0.000391
  0C   2px        0.008581  0.031139  0.010600  0.013312 -0.050364  0.038526
  0C   2py       -0.012122  0.017668  0.016000  0.014578 -0.033818 -0.054680
  0C   1dz2       0.007923  0.003056 -0.006091 -0.002074 -0.000659  0.000150
  0C   1dxz       0.000299  0.000306 -0.000192 -0.000025 -0.000152 -0.000069
  0C   1dyz       0.000127 -0.000053 -0.000224 -0.000051  0.000097 -0.000091
  0C   1dx2y2    -0.000744 -0.010599 -0.003063 -0.002513  0.007499  0.001936
  0C   1dxy      -0.002096  0.000913  0.006805  0.000558 -0.002781  0.005427
  1C   1s         0.119448 -0.091735 -0.139453  0.027852  0.127711 -0.013312
  1C   2s        -0.228832  0.181646  0.276127 -0.057546 -0.263817  0.026974
  1C   3s        -0.049905  0.042033  0.063799 -0.016934 -0.077728  0.029221
  1C   1pz       -0.001347 -0.000139  0.000799  0.001253  0.001020 -0.003956
  1C   1px        0.066436 -0.024672 -0.018625  0.005087 -0.065073  0.195399
  1C   1py        0.006010  0.094165 -0.065081 -0.204156  0.038712  0.017698
  1C   2pz       -0.000299 -0.000071  0.000233  0.000280 -0.000152 -0.001354
  1C   2px        0.014791 -0.007249 -0.004377  0.006593  0.003098  0.066656
  1C   2py        0.001411  0.032789 -0.022494 -0.061907  0.013890  0.006002
  1C   1dz2       0.007924 -0.003748 -0.005694  0.000464  0.002124  0.000148
  1C   1dxz       0.000224 -0.000031 -0.000109 -0.000007  0.000084  0.000124
  1C   1dyz       0.000098  0.000145 -0.000210 -0.000163  0.000060 -0.000015
  1C   1dx2y2     0.002192 -0.001528 -0.006088 -0.001544  0.000001 -0.005664
  1C   1dxy       0.000401 -0.010061  0.005322  0.008059 -0.001819 -0.001034
  2C   1s         0.119450 -0.166644  0.009718  0.096679 -0.087976 -0.013323
  2C   2s        -0.228849  0.329990 -0.019253 -0.199717  0.181754  0.027008
  2C   3s        -0.049953  0.076264 -0.004246 -0.058802  0.053408  0.029280
  2C   1pz       -0.000952  0.000318 -0.001751  0.002774  0.001722 -0.002795
  2C   1px        0.028003 -0.006185  0.104819 -0.146869 -0.122279  0.082352
  2C   1py        0.060552 -0.029304 -0.046625  0.016813  0.103116  0.178113
  2C   2pz       -0.000216  0.000075 -0.000607  0.000596  0.000751 -0.000951
  2C   2px        0.006212 -0.001107  0.036343 -0.037435 -0.043924  0.028099
  2C   2py        0.013588 -0.008027 -0.016345  0.020926  0.016991  0.060653
  2C   1dz2       0.007923 -0.006802  0.000390  0.001611 -0.001458  0.000149
  2C   1dxz       0.000287 -0.000265  0.000238 -0.000057 -0.000168 -0.000039
  2C   1dyz       0.000048  0.000043  0.000086 -0.000020 -0.000068  0.000113
  2C   1dx2y2    -0.001439  0.003380 -0.008989  0.004467  0.004586  0.003730
  2C   1dxy       0.001700 -0.005020 -0.007177  0.003471  0.004189 -0.004391
  3C   1s         0.119448 -0.074908  0.149170 -0.124523 -0.039745 -0.013321
  3C   2s        -0.228846  0.148335 -0.295369  0.257219  0.082120  0.026992
  3C   3s        -0.049867  0.034351 -0.068376  0.075780  0.024201  0.029298
  3C   1pz        0.000394 -0.002118 -0.000872  0.001617 -0.003837  0.001163
  3C   1px       -0.038443  0.091481  0.027074 -0.086257  0.151390 -0.113047
  3C   1py        0.054538  0.048426  0.051063  0.012336  0.130053  0.160410
  3C   2pz        0.000091 -0.000732 -0.000311  0.000355 -0.001216  0.000391
  3C   2px       -0.008581  0.031139  0.010601 -0.013313  0.050365 -0.038526
  3C   2py        0.012122  0.017668  0.016001 -0.014578  0.033817  0.054679
  3C   1dz2       0.007923 -0.003056  0.006091 -0.002074 -0.000659  0.000150
  3C   1dxz       0.000299 -0.000306  0.000192 -0.000025 -0.000152 -0.000069
  3C   1dyz       0.000127  0.000053  0.000224 -0.000051  0.000097 -0.000092
  3C   1dx2y2    -0.000744  0.010599  0.003063 -0.002513  0.007499  0.001936
  3C   1dxy      -0.002096 -0.000913 -0.006805  0.000558 -0.002781  0.005427
  4C   1s         0.119448  0.091735  0.139453  0.027852  0.127711 -0.013312
  4C   2s        -0.228832 -0.181646 -0.276127 -0.057546 -0.263818  0.026974
  4C   3s        -0.049904 -0.042033 -0.063799 -0.016933 -0.077729  0.029219
  4C   1pz        0.001347 -0.000139  0.000799 -0.001252 -0.001020  0.003956
  4C   1px       -0.066436 -0.024672 -0.018625 -0.005088  0.065073 -0.195398
  4C   1py       -0.006010  0.094165 -0.065081  0.204156 -0.038713 -0.017697
  4C   2pz        0.000299 -0.000071  0.000233 -0.000280  0.000152  0.001354
  4C   2px       -0.014791 -0.007249 -0.004377 -0.006592 -0.003099 -0.066657
  4C   2py       -0.001411  0.032789 -0.022493  0.061907 -0.013889 -0.006002
  4C   1dz2       0.007924  0.003748  0.005694  0.000464  0.002124  0.000148
  4C   1dxz       0.000224  0.000031  0.000109 -0.000007  0.000084  0.000124
  4C   1dyz       0.000098 -0.000145  0.000210 -0.000163  0.000060 -0.000015
  4C   1dx2y2     0.002192  0.001528  0.006088 -0.001544  0.000001 -0.005664
  4C   1dxy       0.000401  0.010061 -0.005322  0.008059 -0.001819 -0.001034
  5C   1s         0.119450  0.166643 -0.009718  0.096680 -0.087977 -0.013323
  5C   2s        -0.228849 -0.329990  0.019252 -0.199717  0.181754  0.027008
  5C   3s        -0.049953 -0.076263  0.004246 -0.058804  0.053409  0.029281
  5C   1pz        0.000952  0.000318 -0.001751 -0.002774 -0.001722  0.002795
  5C   1px       -0.028003 -0.006185  0.104819  0.146869  0.122279 -0.082353
  5C   1py       -0.060552 -0.029304 -0.046625 -0.016812 -0.103116 -0.178113
  5C   2pz        0.000216  0.000075 -0.000607 -0.000596 -0.000751  0.000951
  5C   2px       -0.006212 -0.001107  0.036342  0.037434  0.043924 -0.028099
  5C   2py       -0.013589 -0.008026 -0.016345 -0.020927 -0.016990 -0.060652
  5C   1dz2       0.007923  0.006802 -0.000390  0.001611 -0.001458  0.000149
  5C   1dxz       0.000287  0.000265 -0.000238 -0.000057 -0.000168 -0.000039
  5C   1dyz       0.000048 -0.000043 -0.000086 -0.000020 -0.000068  0.000113
  5C   1dx2y2    -0.001439 -0.003380  0.008989  0.004467  0.004586  0.003730
  5C   1dxy       0.001700  0.005020  0.007177  0.003470  0.004189 -0.004391
  6H   1s        -0.043459 -0.044450  0.088529  0.142451  0.045455  0.140167
  6H   2s        -0.008684 -0.007499  0.014927  0.041932  0.013395  0.031162
  6H   1pz       -0.000044 -0.000070  0.000049  0.000047  0.000102  0.000047
  6H   1px        0.004250  0.004759 -0.005816 -0.005995 -0.005477 -0.004554
  6H   1py       -0.006030 -0.003633  0.009817  0.010702  0.000903  0.006460
  7H   1s        -0.043463  0.054440  0.082753 -0.031867 -0.146101  0.140152
  7H   2s        -0.008669  0.009164  0.013907 -0.009388 -0.042988  0.031134
  7H   1pz       -0.000149  0.000132  0.000219 -0.000035 -0.000256  0.000159
  7H   1px        0.007344 -0.007116 -0.010487  0.003084  0.012378 -0.007867
  7H   1py        0.000663  0.001041 -0.002055 -0.003794  0.002009 -0.000712
  8H   1s        -0.043471  0.098901 -0.005774 -0.110594  0.100655  0.140178
  8H   2s        -0.008717  0.016684 -0.001002 -0.032550  0.029672  0.031188
  8H   1pz       -0.000105  0.000179 -0.000041 -0.000092  0.000169  0.000112
  8H   1px        0.003099 -0.005230  0.002133  0.001436 -0.006410 -0.003320
  8H   1py        0.006695 -0.011582 -0.000168  0.009771 -0.006534 -0.007173
  9H   1s        -0.043459  0.044450 -0.088529  0.142450  0.045456  0.140167
  9H   2s        -0.008684  0.007499 -0.014927  0.041932  0.013396  0.031162
  9H   1pz        0.000044 -0.000070  0.000049 -0.000047 -0.000102 -0.000047
  9H   1px       -0.004250  0.004759 -0.005816  0.005995  0.005477  0.004554
  9H   1py        0.006030 -0.003633  0.009817 -0.010702 -0.000903 -0.006460
 10H   1s        -0.043463 -0.054440 -0.082753 -0.031866 -0.146101  0.140152
 10H   2s        -0.008669 -0.009164 -0.013907 -0.009387 -0.042988  0.031134
 10H   1pz        0.000149  0.000132  0.000220  0.000035  0.000256 -0.000159
 10H   1px       -0.007344 -0.007116 -0.010487 -0.003084 -0.012378  0.007867
 10H   1py       -0.000663  0.001041 -0.002055  0.003794 -0.002009  0.000712
 11H   1s        -0.043471 -0.098901  0.005774 -0.110594  0.100655  0.140179
 11H   2s        -0.008717 -0.016683  0.001002 -0.032550  0.029672  0.031189
 11H   1pz        0.000105  0.000179 -0.000041  0.000092 -0.000169 -0.000112
 11H   1px       -0.003099 -0.005230  0.002133 -0.001436  0.006410  0.003320
 11H   1py       -0.006695 -0.011582 -0.000168 -0.009771  0.006534  0.007173
                     12        13        14        15        16        17   
                  -0.45323  -0.44497  -0.41853  -0.41852  -0.36494  -0.34296
                   2.00000   2.00000   2.00000   2.00000   2.00000   2.00000
                  --------  --------  --------  --------  --------  --------
  0C   1s        -0.075056  0.000056 -0.019490  0.022353 -0.000000 -0.004813
  0C   2s         0.156655 -0.000124  0.052841 -0.060608  0.000000  0.020429
  0C   3s         0.375140 -0.000265  0.069616 -0.079580  0.000008 -0.053301
  0C   1pz       -0.000780 -0.005562  0.002484 -0.000250 -0.227772 -0.000751
  0C   1px        0.075347  0.228555 -0.168529  0.087026 -0.004491 -0.038558
  0C   1py       -0.106601  0.161198  0.127552 -0.220911 -0.001501  0.229078
  0C   2pz        0.000682 -0.001815 -0.000460 -0.001112 -0.122779 -0.000663
  0C   2px       -0.066236  0.074580 -0.000811  0.068530 -0.002413  0.021753
  0C   2py        0.093907  0.052457  0.072317 -0.035134 -0.000807  0.035523
  0C   1dz2      -0.000768 -0.000001  0.000215 -0.000243 -0.000113  0.000760
  0C   1dxz       0.000140  0.000076 -0.000193 -0.000117  0.006355 -0.000143
  0C   1dyz       0.000203 -0.000061  0.000093  0.000161 -0.009018 -0.000352
  0C   1dx2y2    -0.004363 -0.004405  0.010530  0.007460  0.000185  0.002194
  0C   1dxy      -0.012224  0.001578 -0.001052 -0.005765 -0.000135  0.019064
  1C   1s         0.075058 -0.000046  0.009593  0.028055 -0.000001  0.000721
  1C   2s        -0.156676  0.000090 -0.026017 -0.076063  0.000004 -0.003070
  1C   3s        -0.375005  0.000237 -0.034352 -0.100296  0.000003  0.007966
  1C   1pz        0.002629  0.001348 -0.001596 -0.005973 -0.227778  0.000659
  1C   1px       -0.129931  0.025385  0.106016  0.286003 -0.004468  0.055412
  1C   1py       -0.011954 -0.278577 -0.071438  0.053676 -0.001513 -0.261932
  1C   2pz       -0.002317  0.000441 -0.000839 -0.001651 -0.122795  0.000442
  1C   2px        0.114436  0.008204  0.024570  0.086998 -0.002409  0.011630
  1C   2py        0.010282 -0.090842  0.053889 -0.009751 -0.000803 -0.100379
  1C   1dz2       0.000757 -0.000000 -0.000100 -0.000302 -0.000386 -0.000110
  1C   1dxz       0.000292 -0.000014 -0.000068 -0.000072  0.010979 -0.000096
  1C   1dyz      -0.000030 -0.000096 -0.000262  0.000098  0.000992 -0.000229
  1C   1dx2y2    -0.012769 -0.000831 -0.001083  0.004407  0.000209  0.000703
  1C   1dxy      -0.002329  0.004608  0.012916 -0.003681  0.000093  0.011807
  2C   1s        -0.075053  0.000047  0.029100  0.005724  0.000001  0.004092
  2C   2s         0.156658 -0.000093 -0.078896 -0.015519 -0.000002 -0.017357
  2C   3s         0.375134 -0.000262 -0.103877 -0.020323 -0.000013  0.045292
  2C   1pz       -0.001856  0.004213 -0.004516  0.000420 -0.227774 -0.000038
  2C   1px        0.054628 -0.253897  0.141021 -0.051176 -0.004466 -0.075422
  2C   1py        0.118591  0.117399  0.265793  0.088682 -0.001491  0.230919
  2C   2pz        0.001643  0.001370 -0.001099 -0.001049 -0.122777  0.000756
  2C   2px       -0.048355 -0.082690  0.027814  0.055731 -0.002413 -0.051217
  2C   2py       -0.104286  0.038320  0.084974 -0.006635 -0.000799  0.039058
  2C   1dz2      -0.000764  0.000003 -0.000317 -0.000058 -0.000273 -0.000638
  2C   1dxz       0.000074 -0.000091  0.000069 -0.000254  0.004627 -0.000037
  2C   1dyz      -0.000258 -0.000036 -0.000057 -0.000118  0.010010 -0.000368
  2C   1dx2y2    -0.008401  0.003573 -0.004465  0.009711  0.000024 -0.004836
  2C   1dxy       0.009892  0.003023  0.001195  0.009229  0.000227  0.016723
  3C   1s         0.075056 -0.000056  0.019490 -0.022353  0.000000 -0.004813
  3C   2s        -0.156656  0.000124 -0.052841  0.060608 -0.000001  0.020429
  3C   3s        -0.375139  0.000265 -0.069616  0.079581 -0.000008 -0.053303
  3C   1pz       -0.000780 -0.005562  0.002485 -0.000250 -0.227772  0.000750
  3C   1px        0.075346  0.228554 -0.168529  0.087026 -0.004491  0.038558
  3C   1py       -0.106600  0.161198  0.127552 -0.220911 -0.001500 -0.229077
  3C   2pz        0.000683 -0.001815 -0.000460 -0.001112 -0.122779  0.000662
  3C   2px       -0.066235  0.074581 -0.000812  0.068531 -0.002413 -0.021752
  3C   2py        0.093908  0.052457  0.072317 -0.035133 -0.000807 -0.035522
  3C   1dz2       0.000768  0.000001 -0.000215  0.000243  0.000113  0.000760
  3C   1dxz      -0.000140 -0.000076  0.000193  0.000117 -0.006355 -0.000143
  3C   1dyz      -0.000203  0.000060 -0.000093 -0.000161  0.009018 -0.000352
  3C   1dx2y2     0.004363  0.004405 -0.010530 -0.007460 -0.000185  0.002194
  3C   1dxy       0.012224 -0.001579  0.001052  0.005765  0.000135  0.019064
  4C   1s        -0.075058  0.000046 -0.009593 -0.028055  0.000001  0.000721
  4C   2s         0.156676 -0.000090  0.026018  0.076062 -0.000004 -0.003070
  4C   3s         0.375005 -0.000237  0.034352  0.100296 -0.000002  0.007969
  4C   1pz        0.002629  0.001348 -0.001596 -0.005973 -0.227778 -0.000659
  4C   1px       -0.129931  0.025386  0.106015  0.286003 -0.004468 -0.055412
  4C   1py       -0.011955 -0.278578 -0.071438  0.053676 -0.001514  0.261931
  4C   2pz       -0.002317  0.000441 -0.000839 -0.001651 -0.122795 -0.000442
  4C   2px        0.114436  0.008204  0.024570  0.086999 -0.002409 -0.011629
  4C   2py        0.010283 -0.090841  0.053889 -0.009750 -0.000803  0.100379
  4C   1dz2      -0.000757  0.000000  0.000100  0.000302  0.000386 -0.000110
  4C   1dxz      -0.000292  0.000014  0.000068  0.000072 -0.010979 -0.000096
  4C   1dyz       0.000030  0.000096  0.000262 -0.000098 -0.000992 -0.000229
  4C   1dx2y2     0.012769  0.000831  0.001083 -0.004408 -0.000209  0.000703
  4C   1dxy       0.002329 -0.004608 -0.012916  0.003681 -0.000093  0.011807
  5C   1s         0.075052 -0.000047 -0.029100 -0.005724 -0.000001  0.004092
  5C   2s        -0.156657  0.000093  0.078896  0.015519  0.000002 -0.017357
  5C   3s        -0.375134  0.000262  0.103877  0.020323  0.000014  0.045291
  5C   1pz       -0.001856  0.004212 -0.004516  0.000420 -0.227774  0.000037
  5C   1px        0.054627 -0.253898  0.141021 -0.051175 -0.004466  0.075421
  5C   1py        0.118590  0.117400  0.265793  0.088682 -0.001490 -0.230919
  5C   2pz        0.001643  0.001370 -0.001099 -0.001049 -0.122778 -0.000756
  5C   2px       -0.048356 -0.082691  0.027815  0.055730 -0.002413  0.051216
  5C   2py       -0.104286  0.038320  0.084974 -0.006635 -0.000799 -0.039059
  5C   1dz2       0.000764 -0.000003  0.000317  0.000058  0.000273 -0.000638
  5C   1dxz      -0.000074  0.000090 -0.000069  0.000254 -0.004627 -0.000037
  5C   1dyz       0.000258  0.000036  0.000057  0.000118 -0.010010 -0.000368
  5C   1dx2y2     0.008401 -0.003573  0.004465 -0.009710 -0.000024 -0.004836
  5C   1dxy      -0.009892 -0.003023 -0.001195 -0.009229 -0.000227  0.016723
  6H   1s         0.195428 -0.000113 -0.146405  0.167720 -0.000006 -0.218107
  6H   2s         0.091359 -0.000064 -0.070103  0.080299 -0.000007 -0.134266
  6H   1pz        0.000057 -0.000130  0.000006  0.000075 -0.005824 -0.000081
  6H   1px       -0.005497  0.005360  0.001669 -0.005276 -0.000115  0.005505
  6H   1py        0.007814  0.003772 -0.005909  0.004393 -0.000039 -0.004152
  7H   1s        -0.195401  0.000151  0.072099  0.210662  0.000004  0.032838
  7H   2s        -0.091356  0.000058  0.034518  0.100844  0.000002  0.020211
  7H   1pz       -0.000192  0.000032  0.000070  0.000164 -0.005823  0.000047
  7H   1px        0.009511  0.000586 -0.002608 -0.008372 -0.000114 -0.000480
  7H   1py        0.000859 -0.006528 -0.002807  0.000121 -0.000039 -0.005650
  8H   1s         0.195453 -0.000105  0.218457  0.042889  0.000010  0.185277
  8H   2s         0.091424 -0.000035  0.104650  0.020556  0.000005  0.114102
  8H   1pz        0.000135  0.000099  0.000115  0.000064 -0.005824  0.000131
  8H   1px       -0.004013 -0.005949 -0.003155 -0.003121 -0.000114 -0.005492
  8H   1py       -0.008672  0.002757 -0.008060 -0.000425 -0.000039 -0.003606
  9H   1s        -0.195428  0.000113  0.146405 -0.167720  0.000007 -0.218107
  9H   2s        -0.091359  0.000064  0.070103 -0.080299  0.000007 -0.134266
  9H   1pz        0.000057 -0.000130  0.000006  0.000075 -0.005824  0.000081
  9H   1px       -0.005497  0.005360  0.001669 -0.005276 -0.000115 -0.005505
  9H   1py        0.007814  0.003772 -0.005909  0.004393 -0.000039  0.004152
 10H   1s         0.195401 -0.000151 -0.072098 -0.210663 -0.000003  0.032838
 10H   2s         0.091356 -0.000058 -0.034518 -0.100844 -0.000002  0.020211
 10H   1pz       -0.000192  0.000032  0.000070  0.000164 -0.005823 -0.000047
 10H   1px        0.009511  0.000586 -0.002608 -0.008372 -0.000114  0.000480
 10H   1py        0.000859 -0.006528 -0.002807  0.000121 -0.000039  0.005650
 11H   1s        -0.195452  0.000105 -0.218457 -0.042889 -0.000011  0.185277
 11H   2s        -0.091423  0.000035 -0.104650 -0.020556 -0.000006  0.114102
 11H   1pz        0.000135  0.000099  0.000115  0.000064 -0.005824 -0.000131
 11H   1px       -0.004013 -0.005949 -0.003155 -0.003120 -0.000114  0.005492
 11H   1py       -0.008673  0.002756 -0.008060 -0.000425 -0.000039  0.003606
                     18        19        20        21        22        23   
                  -0.34296  -0.25266  -0.25265  -0.00586  -0.00585   0.06018
                   2.00000   2.00000   2.00000   0.00000   0.00000   0.00000
                  --------  --------  --------  --------  --------  --------
  0C   1s        -0.001945  0.000001 -0.000002 -0.000001  0.000004 -0.042781
  0C   2s         0.008237 -0.000004  0.000004  0.000004 -0.000008  0.096316
  0C   3s        -0.021317  0.000022  0.000001 -0.000006  0.000002  0.518595
  0C   1pz        0.005464 -0.058695  0.342595  0.311386 -0.201154 -0.000664
  0C   1px       -0.252151 -0.001157  0.006751  0.006129 -0.003956  0.064673
  0C   1py       -0.074358 -0.000397  0.002266  0.002054 -0.001331 -0.091773
  0C   2pz        0.001930 -0.040685  0.237416  0.424215 -0.274051 -0.001627
  0C   2px       -0.081142 -0.000802  0.004683  0.008347 -0.005411  0.157763
  0C   2py       -0.048970 -0.000265  0.001571  0.002788 -0.001800 -0.223937
  0C   1dz2       0.000308 -0.000680 -0.000039  0.000505  0.000940  0.002725
  0C   1dxz      -0.000262  0.016532 -0.001526 -0.009615 -0.023804 -0.000126
  0C   1dyz       0.000019  0.010118  0.007917 -0.015421 -0.011204 -0.000247
  0C   1dx2y2     0.012665  0.000258 -0.000083 -0.000086 -0.000394  0.005734
  0C   1dxy       0.003488  0.000308  0.000145 -0.000367 -0.000378  0.016065
  1C   1s         0.005140  0.000002  0.000001 -0.000001 -0.000004 -0.042780
  1C   2s        -0.021798 -0.000006 -0.000004 -0.000001  0.000009  0.096324
  1C   3s         0.056730 -0.000015 -0.000003  0.000047 -0.000010  0.518637
  1C   1pz       -0.004683  0.267351  0.222125 -0.329897 -0.169082 -0.002263
  1C   1px        0.219305  0.005253  0.004355 -0.006474 -0.003324  0.111789
  1C   1py        0.057503  0.001783  0.001477 -0.002186 -0.001123  0.010119
  1C   2pz       -0.000428  0.185290  0.153949 -0.449437 -0.230372 -0.005516
  1C   2px        0.016330  0.003638  0.003016 -0.008824 -0.004508  0.272662
  1C   2py        0.015871  0.001240  0.001025 -0.002988 -0.001532  0.024583
  1C   1dz2      -0.000796  0.000096  0.000293  0.000379 -0.000096  0.002713
  1C   1dxz      -0.000431 -0.006841 -0.003376 -0.006177 -0.006302  0.000442
  1C   1dyz       0.000083  0.011981 -0.015468 -0.014697  0.027011 -0.000020
  1C   1dx2y2     0.019926 -0.000213  0.000035 -0.000025 -0.000302 -0.016776
  1C   1dxy       0.001993  0.000190 -0.000327 -0.000330  0.000489 -0.003064
  2C   1s        -0.003197  0.000003 -0.000001 -0.000000  0.000004 -0.042787
  2C   2s         0.013566 -0.000006  0.000001  0.000001 -0.000009  0.096359
  2C   3s        -0.035371 -0.000021  0.000009 -0.000009  0.000004  0.518656
  2C   1pz        0.005159  0.326038 -0.120467  0.018516  0.370246 -0.001589
  2C   1px       -0.250317  0.006406 -0.002354  0.000364  0.007272  0.047108
  2C   1py       -0.037468  0.002147 -0.000800  0.000122  0.002443  0.101885
  2C   2pz        0.001362  0.225936 -0.083491  0.025232  0.504419 -0.003884
  2C   2px       -0.077564  0.004442 -0.001639  0.000494  0.009902  0.114979
  2C   2py        0.023832  0.001490 -0.000550  0.000168  0.003308  0.248459
  2C   1dz2       0.000504 -0.000004 -0.000544  0.000794 -0.000248  0.002719
  2C   1dxz      -0.000254  0.003239  0.017793 -0.027792  0.004920 -0.000038
  2C   1dyz       0.000174 -0.009204 -0.005391  0.013330  0.006975  0.000360
  2C   1dx2y2     0.015004  0.000125  0.000385 -0.000634  0.000051  0.011044
  2C   1dxy      -0.003546 -0.000160  0.000012  0.000078  0.000170 -0.012997
  3C   1s        -0.001945  0.000001 -0.000001  0.000001 -0.000004 -0.042782
  3C   2s         0.008237 -0.000004  0.000003 -0.000003  0.000008  0.096316
  3C   3s        -0.021318  0.000021  0.000003  0.000007 -0.000003  0.518600
  3C   1pz       -0.005464  0.058696 -0.342595  0.311386 -0.201154  0.000664
  3C   1px        0.252152  0.001157 -0.006751  0.006130 -0.003955 -0.064674
  3C   1py        0.074358  0.000397 -0.002266  0.002053 -0.001331  0.091773
  3C   2pz       -0.001930  0.040685 -0.237416  0.424215 -0.274051  0.001627
  3C   2px        0.081142  0.000802 -0.004683  0.008347 -0.005410 -0.157762
  3C   2py        0.048970  0.000265 -0.001572  0.002788 -0.001800  0.223940
  3C   1dz2       0.000308 -0.000680 -0.000039 -0.000505 -0.000940  0.002725
  3C   1dxz      -0.000262  0.016532 -0.001526  0.009615  0.023804 -0.000126
  3C   1dyz       0.000019  0.010118  0.007917  0.015421  0.011204 -0.000247
  3C   1dx2y2     0.012665  0.000258 -0.000083  0.000086  0.000394  0.005734
  3C   1dxy       0.003488  0.000308  0.000145  0.000367  0.000378  0.016065
  4C   1s         0.005140  0.000002  0.000001  0.000001  0.000004 -0.042780
  4C   2s        -0.021797 -0.000006 -0.000004  0.000001 -0.000009  0.096324
  4C   3s         0.056732 -0.000014 -0.000004 -0.000047  0.000010  0.518640
  4C   1pz        0.004683 -0.267351 -0.222125 -0.329897 -0.169082  0.002263
  4C   1px       -0.219305 -0.005253 -0.004355 -0.006474 -0.003324 -0.111790
  4C   1py       -0.057503 -0.001782 -0.001477 -0.002186 -0.001123 -0.010119
  4C   2pz        0.000428 -0.185290 -0.153949 -0.449437 -0.230372  0.005517
  4C   2px       -0.016329 -0.003638 -0.003017 -0.008824 -0.004509 -0.272663
  4C   2py       -0.015872 -0.001240 -0.001025 -0.002988 -0.001531 -0.024582
  4C   1dz2      -0.000796  0.000096  0.000293 -0.000379  0.000096  0.002713
  4C   1dxz      -0.000431 -0.006841 -0.003376  0.006177  0.006302  0.000442
  4C   1dyz       0.000083  0.011981 -0.015468  0.014697 -0.027011 -0.000020
  4C   1dx2y2     0.019926 -0.000213  0.000035  0.000025  0.000302 -0.016776
  4C   1dxy       0.001993  0.000190 -0.000327  0.000330 -0.000489 -0.003064
  5C   1s        -0.003197  0.000003 -0.000001  0.000000 -0.000004 -0.042787
  5C   2s         0.013566 -0.000005  0.000000 -0.000001  0.000008  0.096359
  5C   3s        -0.035372 -0.000022  0.000011  0.000009 -0.000005  0.518659
  5C   1pz       -0.005159 -0.326038  0.120467  0.018516  0.370246  0.001589
  5C   1px        0.250316 -0.006406  0.002354  0.000364  0.007272 -0.047108
  5C   1py        0.037468 -0.002147  0.000800  0.000121  0.002444 -0.101885
  5C   2pz       -0.001362 -0.225936  0.083491  0.025232  0.504419  0.003885
  5C   2px        0.077565 -0.004443  0.001640  0.000494  0.009901 -0.114977
  5C   2py       -0.023833 -0.001490  0.000550  0.000168  0.003309 -0.248459
  5C   1dz2       0.000504 -0.000004 -0.000544 -0.000794  0.000248  0.002719
  5C   1dxz      -0.000254  0.003239  0.017793  0.027792 -0.004920 -0.000038
  5C   1dyz       0.000174 -0.009204 -0.005391 -0.013330 -0.006975  0.000360
  5C   1dx2y2     0.015004  0.000125  0.000385  0.000634 -0.000051  0.011044
  5C   1dxy      -0.003546 -0.000160  0.000012 -0.000078 -0.000170 -0.012997
  6H   1s        -0.088006  0.000009  0.000003 -0.000011  0.000005 -0.070488
  6H   2s        -0.054180  0.000005  0.000004 -0.000017  0.000016 -0.756926
  6H   1pz        0.000088 -0.001905  0.011122  0.015008 -0.009696  0.000033
  6H   1px       -0.002748 -0.000038  0.000219  0.000296 -0.000190 -0.003183
  6H   1py       -0.005180 -0.000013  0.000073  0.000099 -0.000064  0.004520
  7H   1s         0.232891  0.000006 -0.000008 -0.000010 -0.000003 -0.070488
  7H   2s         0.143353  0.000006 -0.000005 -0.000021 -0.000007 -0.756870
  7H   1pz        0.000137  0.008678  0.007210 -0.015900 -0.008149  0.000111
  7H   1px       -0.007051  0.000170  0.000142 -0.000312 -0.000160 -0.005504
  7H   1py        0.000148  0.000058  0.000048 -0.000106 -0.000054 -0.000498
  8H   1s        -0.144881 -0.000003 -0.000000  0.000002  0.000011 -0.070480
  8H   2s        -0.089232 -0.000001 -0.000000  0.000003  0.000024 -0.756813
  8H   1pz        0.000005  0.010584 -0.003910  0.000893  0.017845  0.000079
  8H   1px       -0.002200  0.000208 -0.000076  0.000017  0.000350 -0.002322
  8H   1py        0.005823  0.000070 -0.000026  0.000006  0.000118 -0.005018
  9H   1s        -0.088006  0.000009  0.000003  0.000010 -0.000005 -0.070488
  9H   2s        -0.054180  0.000004  0.000004  0.000017 -0.000016 -0.756930
  9H   1pz       -0.000088  0.001905 -0.011122  0.015008 -0.009696 -0.000033
  9H   1px        0.002748  0.000038 -0.000219  0.000296 -0.000190  0.003183
  9H   1py        0.005180  0.000013 -0.000073  0.000099 -0.000064 -0.004520
 10H   1s         0.232892  0.000006 -0.000008  0.000010  0.000003 -0.070489
 10H   2s         0.143353  0.000006 -0.000005  0.000021  0.000006 -0.756872
 10H   1pz       -0.000137 -0.008678 -0.007210 -0.015900 -0.008149 -0.000111
 10H   1px        0.007051 -0.000170 -0.000142 -0.000312 -0.000160  0.005504
 10H   1py       -0.000148 -0.000058 -0.000048 -0.000106 -0.000054  0.000498
 11H   1s        -0.144881 -0.000003 -0.000000 -0.000002 -0.000010 -0.070480
 11H   2s        -0.089232 -0.000001  0.000000 -0.000002 -0.000023 -0.756813
 11H   1pz       -0.000005 -0.010584  0.003910  0.000893  0.017845 -0.000079
 11H   1px        0.002200 -0.000208  0.000076  0.000017  0.000350  0.002322
[...]
 10H   1py        0.234936 -0.035285  0.030748  0.149598 -0.296851 -0.034884
 11H   1s        -0.012274  0.222656 -0.076731 -0.778590  0.000212  0.558434
 11H   2s         0.027687  0.150115 -0.036168 -0.367162  0.000091  0.262692
 11H   1pz        0.004639 -0.005570 -0.001139  0.009955 -0.004491 -0.005482
 11H   1px       -0.273740  0.164212  0.098209 -0.300185  0.270568  0.162100
 11H   1py        0.112027  0.354839 -0.119891 -0.616643 -0.124987  0.350656



                    ********************************
                    * MULLIKEN POPULATION ANALYSIS *
                    ********************************

-----------------------
MULLIKEN ATOMIC CHARGES
-----------------------
   0 C :    0.016422
   1 C :    0.016293
   2 C :    0.016646
   3 C :    0.016421
   4 C :    0.016294
   5 C :    0.016647
   6 H :   -0.016424
   7 H :   -0.016320
   8 H :   -0.016618
   9 H :   -0.016424
  10 H :   -0.016320
  11 H :   -0.016618
Sum of atomic charges:    0.0000000

--------------------------------
MULLIKEN REDUCED ORBITAL CHARGES
--------------------------------
  0 C s       :     3.159953  s :     3.159953
      pz      :     0.986698  p :     2.788970
      px      :     0.921096
      py      :     0.881176
      dz2     :     0.002506  d :     0.034655
      dxz     :     0.004975
      dyz     :     0.003628
      dx2y2   :     0.010830
      dxy     :     0.012716

  1 C s       :     3.159713  s :     3.159713
      pz      :     0.986710  p :     2.789336
      px      :     0.842882
      py      :     0.959744
      dz2     :     0.002502  d :     0.034658
      dxz     :     0.002328
      dyz     :     0.006278
      dx2y2   :     0.012913
      dxy     :     0.010637

  2 C s       :     3.159883  s :     3.159883
      pz      :     0.986663  p :     2.788816
      px      :     0.939592
      py      :     0.862562
      dz2     :     0.002503  d :     0.034655
      dxz     :     0.005601
      dyz     :     0.003004
      dx2y2   :     0.011579
      dxy     :     0.011968

  3 C s       :     3.159953  s :     3.159953
      pz      :     0.986698  p :     2.788971
      px      :     0.921099
      py      :     0.881174
      dz2     :     0.002506  d :     0.034655
      dxz     :     0.004975
      dyz     :     0.003628
      dx2y2   :     0.010830
      dxy     :     0.012716

  4 C s       :     3.159712  s :     3.159712
      pz      :     0.986710  p :     2.789336
      px      :     0.842882
      py      :     0.959744
      dz2     :     0.002502  d :     0.034658
      dxz     :     0.002328
      dyz     :     0.006278
      dx2y2   :     0.012913
      dxy     :     0.010637

  5 C s       :     3.159884  s :     3.159884
      pz      :     0.986663  p :     2.788814
      px      :     0.939590
      py      :     0.862561
      dz2     :     0.002503  d :     0.034655
      dxz     :     0.005601
      dyz     :     0.003004
      dx2y2   :     0.011579
      dxy     :     0.011968

  6 H s       :     0.993750  s :     0.993750
      pz      :     0.004673  p :     0.022674
      px      :     0.007084
      py      :     0.010918

  7 H s       :     0.993650  s :     0.993650
      pz      :     0.004676  p :     0.022670
      px      :     0.014602
      py      :     0.003392

  8 H s       :     0.993941  s :     0.993941
      pz      :     0.004675  p :     0.022677
      px      :     0.005311
      py      :     0.012692

  9 H s       :     0.993750  s :     0.993750
      pz      :     0.004673  p :     0.022674
      px      :     0.007084
      py      :     0.010918

 10 H s       :     0.993649  s :     0.993649
      pz      :     0.004676  p :     0.022670
      px      :     0.014602
      py      :     0.003392

 11 H s       :     0.993941  s :     0.993941
      pz      :     0.004675  p :     0.022677
      px      :     0.005311
      py      :     0.012692



                     *******************************
                     * LOEWDIN POPULATION ANALYSIS *
                     *******************************

----------------------
LOEWDIN ATOMIC CHARGES
----------------------
   0 C :   -0.026249
   1 C :   -0.026300
   2 C :   -0.026220
   3 C :   -0.026249
   4 C :   -0.026300
   5 C :   -0.026220
   6 H :    0.026262
   7 H :    0.026281
   8 H :    0.026226
   9 H :    0.026262
  10 H :    0.026281
  11 H :    0.026226

-------------------------------
LOEWDIN REDUCED ORBITAL CHARGES
-------------------------------
  0 C s       :     2.864034  s :     2.864034
      pz      :     0.968662  p :     3.072593
      px      :     1.057290
      py      :     1.046641
      dz2     :     0.006091  d :     0.089622
      dxz     :     0.010305
      dyz     :     0.007053
      dx2y2   :     0.030947
      dxy     :     0.035226

  1 C s       :     2.864033  s :     2.864033
      pz      :     0.968683  p :     3.072644
      px      :     1.036362
      py      :     1.067598
      dz2     :     0.006083  d :     0.089624
      dxz     :     0.003918
      dyz     :     0.013444
      dx2y2   :     0.035674
      dxy     :     0.030505

  2 C s       :     2.864030  s :     2.864030
      pz      :     0.968642  p :     3.072559
      px      :     1.062226
      py      :     1.041692
      dz2     :     0.006088  d :     0.089631
      dxz     :     0.011813
      dyz     :     0.005548
      dx2y2   :     0.032648
      dxy     :     0.033534

  3 C s       :     2.864034  s :     2.864034
      pz      :     0.968662  p :     3.072593
      px      :     1.057290
      py      :     1.046641
      dz2     :     0.006091  d :     0.089622
      dxz     :     0.010305
      dyz     :     0.007053
      dx2y2   :     0.030947
      dxy     :     0.035226

  4 C s       :     2.864033  s :     2.864033
      pz      :     0.968683  p :     3.072644
      px      :     1.036362
      py      :     1.067598
      dz2     :     0.006083  d :     0.089624
      dxz     :     0.003918
      dyz     :     0.013444
      dx2y2   :     0.035674
      dxy     :     0.030505

  5 C s       :     2.864030  s :     2.864030
      pz      :     0.968642  p :     3.072560
      px      :     1.062226
      py      :     1.041692
      dz2     :     0.006088  d :     0.089631
      dxz     :     0.011813
      dyz     :     0.005548
      dx2y2   :     0.032648
      dxy     :     0.033534

  6 H s       :     0.907411  s :     0.907411
      pz      :     0.014031  p :     0.066327
      px      :     0.020997
      py      :     0.031300

  7 H s       :     0.907390  s :     0.907390
      pz      :     0.014042  p :     0.066329
      px      :     0.041212
      py      :     0.011075

  8 H s       :     0.907445  s :     0.907445
      pz      :     0.014036  p :     0.066329
      px      :     0.016223
      py      :     0.036069

  9 H s       :     0.907411  s :     0.907411
      pz      :     0.014030  p :     0.066327
      px      :     0.020997
      py      :     0.031300

 10 H s       :     0.907390  s :     0.907390
      pz      :     0.014042  p :     0.066329
      px      :     0.041212
      py      :     0.011074

 11 H s       :     0.907445  s :     0.907445
      pz      :     0.014036  p :     0.066329
      px      :     0.016223
      py      :     0.036069



                      *****************************
                      * MAYER POPULATION ANALYSIS *
                      *****************************

  NA   - Mulliken gross atomic population
  ZA   - Total nuclear charge
  QA   - Mulliken gross atomic charge
  VA   - Mayer's total valence
  BVA  - Mayer's bonded valence
  FA   - Mayer's free valence

  ATOM       NA         ZA         QA         VA         BVA        FA
  0 C      5.9836     6.0000     0.0164     3.8538     3.8538    -0.0000
  1 C      5.9837     6.0000     0.0163     3.8539     3.8539     0.0000
  2 C      5.9834     6.0000     0.0166     3.8539     3.8539     0.0000
  3 C      5.9836     6.0000     0.0164     3.8538     3.8538    -0.0000
  4 C      5.9837     6.0000     0.0163     3.8539     3.8539     0.0000
  5 C      5.9834     6.0000     0.0166     3.8539     3.8539     0.0000
  6 H      1.0164     1.0000    -0.0164     0.9773     0.9773    -0.0000
  7 H      1.0163     1.0000    -0.0163     0.9773     0.9773     0.0000
  8 H      1.0166     1.0000    -0.0166     0.9773     0.9773     0.0000
  9 H      1.0164     1.0000    -0.0164     0.9773     0.9773     0.0000
 10 H      1.0163     1.0000    -0.0163     0.9773     0.9773     0.0000
 11 H      1.0166     1.0000    -0.0166     0.9773     0.9773     0.0000

  Mayer bond orders larger than 0.100000
B(  0-C ,  1-C ) :   1.3925 B(  0-C ,  5-C ) :   1.3924 B(  0-C ,  6-H ) :   0.9840 
B(  1-C ,  2-C ) :   1.3926 B(  1-C ,  7-H ) :   0.9838 B(  2-C ,  3-C ) :   1.3924 
B(  2-C ,  8-H ) :   0.9840 B(  3-C ,  4-C ) :   1.3925 B(  3-C ,  9-H ) :   0.9840 
B(  4-C ,  5-C ) :   1.3926 B(  4-C , 10-H ) :   0.9838 B(  5-C , 11-H ) :   0.9840 


-------
TIMINGS
-------

Total SCF time: 0 days 0 hours 0 min 3 sec 

Total time                  ....       3.396 sec
Sum of individual times     ....       3.047 sec  ( 89.7%)

SCF preparation             ....       0.115 sec  (  3.4%)
Fock matrix formation       ....       2.819 sec  ( 83.0%)
  Startup                   ....       0.004 sec  (  0.1% of F)
  Split-RI-J                ....       0.345 sec  ( 12.2% of F)
  Chain of spheres X        ....       2.174 sec  ( 77.1% of F)
  XC integration            ....       0.552 sec  ( 19.6% of F)
    XC Preparation          ....       0.000 sec  (  0.0% of XC)
    Basis function eval.    ....       0.170 sec  ( 30.7% of XC)
    Density eval.           ....       0.098 sec  ( 17.7% of XC)
    XC-Functional eval.     ....       0.031 sec  (  5.5% of XC)
    XC-Potential eval.      ....       0.082 sec  ( 14.8% of XC)
Diagonalization             ....       0.000 sec  (  0.0%)
Density matrix formation    ....       0.015 sec  (  0.4%)
Total Energy calculation    ....       0.008 sec  (  0.2%)
Population analysis         ....       0.009 sec  (  0.3%)
Orbital Transformation      ....       0.012 sec  (  0.4%)
Orbital Orthonormalization  ....       0.000 sec  (  0.0%)
DIIS solution               ....       0.052 sec  (  1.5%)
SOSCF solution              ....       0.016 sec  (  0.5%)
Finished LeanSCF after   3.4 sec

Maximum memory used throughout the entire LEANSCF-calculation: 10.1 MB

-------------------------   --------------------
FINAL SINGLE POINT ENERGY      -231.930784926115
-------------------------   --------------------



           ************************************************************
           *        Program running with 4 parallel MPI-processes     *
           *              working on a common directory               *
           ************************************************************

------------------------------------------------------------------------------
                              ORCA PROPERTY CALCULATIONS
------------------------------------------------------------------------------

GBWName                                 ... benzene-opt-ene.gbw
Number of atoms                         ...     12
Number of basis functions               ...    114
Max core memory                         ...   2000 MB

Electric properties:
Dipole moment                           ... YES
Quadrupole moment                       ...  NO
Static polarizability (Dipole/Dipole)   ...  NO
Static polarizability (Dipole/Quad.)    ...  NO
Static polarizability (Quad./Quad.)     ...  NO
Static polarizability (Velocity)        ...  NO
Static hyperpolarizability              ...  NO

Atomic electric properties:
Dipole moment                           ...  NO
Quadrupole moment                       ...  NO
Static polarizability                   ...  NO

Choice of electric origin               ... Center of mass
Position of electric origin             ...     0.000000    -0.000001    -0.000000

General magnetic properties:
Magnetizability                         ...  NO

EPR properties:
g-Tensor (aka g-matrix)                 ...  NO
Zero-Field splitting spin-orbit         ...  NO
Zero-field splitting spin-spin          ...  NO
Hyperfine couplings                     ...  NO (   0 nuclei)
Quadrupole couplings                    ...  NO (   0 nuclei)
Contact density                         ...  NO (   0 nuclei)

NMR properties:
Chemical shifts                         ...  NO (   0 nuclei)
Spin-rotation constants                 ...  NO (   0 nuclei)
Spin-spin couplings                     ...  NO (   0 nuclei,    0 pairs)

Choice of magnetic origin               ... GIAO
Position of magnetic origin             ...     0.000000     0.000000     0.000000

Properties with geometric perturbations:
SCF Hessian                             ...  NO
IR spectrum                             ...  NO
VCD spectrum                            ...  NO
X-ray spectroscopy properties:
SCF XES/XAS/RIXS spectra                ...  NO

SCF SOC stabilization energy            ...  NO
Diagonal Born-Oppenheimer correction    ...  NO

-------------
DIPOLE MOMENT
-------------

Method             : SCF
Type of density    : Electron Density
Multiplicity       :   1
Irrep              :   0
Energy             :  -231.9307849261148817 Eh
Basis              : AO
                                X                 Y                 Z
Electronic contribution:     -0.000001808      -0.000004116      -0.000001984
Nuclear contribution   :      0.000002597       0.000004328       0.000002597
                        -----------------------------------------
Total Dipole Moment    :      0.000000789       0.000000212       0.000000612
                        -----------------------------------------
Magnitude (a.u.)       :      0.000001021
Magnitude (Debye)      :      0.000002594



--------------------
Rotational spectrum 
--------------------
 
Rotational constants in cm-1:             0.188735             0.188725             0.094365 
Rotational constants in MHz :          5658.146804          5657.845656          2828.998113 

Dipole components along the rotational axes: 
x,y,z [a.u.] :    -0.000000     0.000001     0.000001 
x,y,z [Debye]:    -0.000001     0.000002     0.000002 

 

Dipole moment calculation done in   0.0 sec 

Maximum memory used throughout the entire PROP-calculation: 5.8 MB

--------------------------------
SUGGESTED CITATIONS FOR THIS RUN
--------------------------------

Below you find a list of papers that are relevant to this ORCA run
We neither can nor want to force you to cite these papers, but we appreciate if you do
You receive ORCA, which is the product of decades of hard work by many enthusiastic individuals, for free
The only thing we kindly ask in return is that you cite our papers,
We deeply appreciate it, if you show your appreciation for ORCA by not just citing the generic ORCA reference.

Please note that relegating all ORCA citations to the supporting information does *not* help us.
SI sections are not indexed - citations you put there will not count into any citation statistics
But we need these citations in order to attract the funding resources that allow us to do what we are doing

Therefore, if you are a happy ORCA user, please consider citing a few of the papers listed below in the main body of your paper

In addition to the list printed below, the program has created the file benzene-opt-ene.bibtex that contains the list in bibtex format
You can import this file easily into all common literature databanks and citation aid programs

It goes without saying that in many instances, there are alternative algorithms to achieve similar
results as the ones you have gotten from ORCA. It is, of course, also the case that in some instances
ORCA just re-implements algorithms worked out by others. We are fully aware of that and we are also
fully appreciative of our colleagues work. Hence this citation list should not be read as indicating
that the listed papers, which are focused on our own work, are the only ones worth citing. It simply
meant to make it easier for users to cite ORCA specific papers. It is not a substitute for doing your
own literature research and citing the relevant literature in a scientifically appropriate manner.

List of essential papers. We consider these as the minimum necessary citations

  1. Neese, F.
     Software update: the ORCA program system, version 6.0
     WIRES Comput. Molec. Sci. 2025 15(1), e70019
     doi.org/10.1002/wcms.70019

List of papers to cite with high priority. The work reported in these papers was absolutely
necessary for this run to complete.
Our perspective: the developers of density functionals and basis sets usually get cited in chemistry papers
Good! But without the algorithms to do something with them, the functionals or basis sets would not do anything.
Hence, in our opinion, the algorithm design and method developments papers are equally worthy of getting cited

  1. Neese, F.
     An improvement of the resolution of the identity approximation for the formation of the Coulomb matrix
     J. Comp. Chem. 2003 24(14), 1740-1747
     doi.org/10.1002/jcc.10318
  2. Neese, F.; Wennmohs, F.; Hansen, A.; Becker, U.
     Efficient, approximate and parallel Hartree-Fock and hybrid DFT calculations. A 'chain-of-spheres' algorithm for the Hartree-Fock exchange
     Chem. Phys. 2009 356(1-3), 98-109
     doi.org/10.1016/j.chemphys.2008.10.036
  3. Helmich-Paris, B.; de Souza, B.; Neese, F.; Izsák, R.
     An improved chain of spheres for exchange algorithm
     J. Chem. Phys. 2021 155(10), 104109
     doi.org/10.1063/5.0058766
  4. Neese, F.
     The SHARK Integral Generation and Digestion System
     J. Comp. Chem. 2022 44(3), 381
     doi.org/10.1002/jcc.26942

List of suggested additional citations. These are papers that are important in the 'surrounding' of 
of this run, or papers that preceded the highly important papers. If you like your results we are grateful for a citation.

  1. Izsak, R.; Neese, F.
     An overlap fitted chain of spheres exchange method
     J. Chem. Phys. 2011 135 , 144105
     doi.org/10.1063/1.3646921
  2. Izsak, R.; Hansen, A.; Neese, F.
     The resolution of identity and chain of spheres approximations for the LPNO-CCSD singles Fock term
     Molec. Phys. 2012 110 , 2413-2417
     doi.org/10.1080/00268976.2012.687466
  3. Neese, F.
     The ORCA program system
     WIRES Comput. Molec. Sci. 2012 2(1), 73-78
     doi.org/10.1002/wcms.81
  4. Izsak, R.; Neese, F.; Klopper, W.
     Robust fitting techniques in the chain of spheres approximation to the Fock exchange: The role of the complementary space
     J. Chem. Phys. 2013 139 , 
     doi.org/10.1063/1.4819264
  5. Neese, F.
     Software update: the ORCA program system, version 4.0
     WIRES Comput. Molec. Sci. 2018 8(1), 1-6
     doi.org/10.1002/wcms.1327
  6. Neese, F.; Wennmohs, F.; Becker, U.; Riplinger, C.
     The ORCA quantum chemistry program package
     J. Chem. Phys. 2020 152(22), 224108
     doi.org/10.1063/5.0004608
  7. Neese, F.
     Software update: The ORCA program system—Version 5.0
     WIRES Comput. Molec. Sci. 2022 12(1), e1606
     doi.org/10.1002/wcms.1606

List of optional additional citations

  1. Neese, F.
     Approximate second-order SCF convergence for spin unrestricted wavefunctions
     Chem. Phys. Lett. 2000 325(1-3), 93-98
     doi.org/10.1016/s0009-2614(00)00662-x

Timings for individual modules:

Sum of individual times          ...        5.713 sec (=   0.095 min)
Startup calculation              ...        1.091 sec (=   0.018 min)  19.1 %
SCF iterations                   ...        4.224 sec (=   0.070 min)  73.9 %
Property calculations            ...        0.398 sec (=   0.007 min)   7.0 %
                             ****ORCA TERMINATED NORMALLY****
TOTAL RUN TIME: 0 days 0 hours 0 minutes 6 seconds 201 msec
