
                                 *****************
                                 * O   R   C   A *
                                 *****************

                                            #,                                       
                                            ###                                      
                                            ####                                     
                                            #####                                    
                                            ######                                   
                                           ########,                                 
                                     ,,################,,,,,                         
                               ,,#################################,,                 
                          ,,##########################################,,             
                       ,#########################################, ''#####,          
                    ,#############################################,,   '####,        
                  ,##################################################,,,,####,       
                ,###########''''           ''''###############################       
              ,#####''   ,,,,##########,,,,          '''####'''          '####       
            ,##' ,,,,###########################,,,                        '##       
           ' ,,###''''                  '''############,,,                           
         ,,##''                                '''############,,,,        ,,,,,,###''
      ,#''                                            '''#######################'''  
     '                                                          ''''####''''         
             ,#######,   #######,   ,#######,      ##                                
            ,#'     '#,  ##    ##  ,#'     '#,    #''#        ,####,    ,#,          
            ##       ##  ##   ,#'  ##            #'  '#       #'       ,# #          
            ##       ##  #######   ##           ,######,      #####,      #          
            '#,     ,#'  ##    ##  '#,     ,#' ,#      #,     #,   #      #          
             '#######'   ##     ##  '#######'  #'      '#     '####' #    #          



                #########################################################
                #                        -***-                          #
                #          Department of theory and spectroscopy        #
                #                                                       #
                #                      Frank Neese                      #
                #                                                       #
                #     Directorship, Architecture, Infrastructure        #
                #                    SHARK, DRIVERS                     #
                #        Core code/Algorithms in most modules           #
                #                                                       #
                #        Max Planck Institute fuer Kohlenforschung      #
                #                Kaiser Wilhelm Platz 1                 #
                #                 D-45470 Muelheim/Ruhr                 #
                #                      Germany                          #
                #                                                       #
                #                  All rights reserved                  #
                #                        -***-                          #
                #########################################################


                         Program Version 6.1.1  -  RELEASE   -
                                (GIT: $487d211c$)
                          ($2025-11-21 10:33:24 +0100$)


 With contributions from (in alphabetic order):
[Max-Planck-Institut fuer Kohlenforschung]                               
  Daniel Aravena         : Magnetic Suceptibility                        
  Michael Atanasov       : Ab Initio Ligand Field Theory (pilot matlab implementation)
  Alexander A. Auer      : GIAO ZORA, VPT2 properties, NMR spectrum      
  Ute Becker             : All parallelization in ORCA, NUMFREQ, NUMCALC 
  Giovanni Bistoni       : ED, misc. LED, open-shell LED, HFLD           
  Dmytro Bykov           : pre 5.0 version of the SCF Hessian            
  Marcos Casanova-Páez   : Triplet and SCS-CIS(D). UHF-(DLPNO)-IP/EA/STEOM-CCSD. UHF-CVS-IP/STEOM-CCSD   
  Vijay G. Chilkuri      : MRCI spin determinant printing, contributions to CSF-ICE 
  Pauline Colinet        : FMM embedding                                 
  Dipayan Datta          : RHF DLPNO-CCSD density                        
  Achintya Kumar Dutta   : EOM-CC, STEOM-CC                              
  Nicolas Foglia         : Exact transition moments, OPA infrastructure, MCD improvements    
  Dmitry Ganyushin       : Spin-Orbit,Spin-Spin,Magnetic field MRCI      
  Miquel Garcia-Rates    : C-PCM and meta-GGA Hessian, CCSD/C-PCM, Gaussian charge scheme 
  Tiago L. C. Gouveia    : GS-ROHF, GS-ROCIS                             
  Yang Guo               : DLPNO-NEVPT2, F12-NEVPT2, CIM, IAO-localization        
  Andreas Hansen         : Spin unrestricted coupled pair/coupled cluster methods 
  Ingolf Harden          : AUTO-CI MPn and infrastructure                
  Benjamin Helmich-Paris : MC-RPA, TRAH-(SCF,CASSCF), AVAS, COSX integrals, SCF dyn. polar., MC-PDFT, srDFT 
  Lee Huntington         : MR-EOM, pCC                                   
  Robert Izsak           : Overlap fitted RIJCOSX, COSX-SCS-MP3, EOM     
  Riya Kayal             : Wick's Theorem for AUTO-CI, AUTO-CI UHF-CCSDT 
  Emily Kempfer          : AUTO-CI RHF CISDT and CCSDT, approximate NEVPT4
  Christian Kollmar      : KDIIS, OOCD, Brueckner-CCSD(T), CCSD density, CASPT2, CASPT2-K, improved NEVPT2 
  Axel Koslowski         : Symmetry handling                             
  Simone Kossmann        : meta-GGA functionals, TD-DFT gradient, OOMP2, (MP2 Hessian; deprecated post 5.0) 
  Lucas Lang             : DCDCAS, Hyperfine gauge corrections, ICE-SOC+SSC
  Marvin Lechner         : AUTO-CI (C++ implementation), FIC-MRCC        
  Spencer Leger          : CASSCF response                               
  Dagmar Lenk            : GEPOL surface, SMD, ORCA-2-JSON               
  Dimitrios Liakos       : Extrapolation schemes; Compound Job, Property file
  Dimitrios Manganas     : Further ROCIS development; embedding schemes. LFT, Crystal Embedding 
  Dimitrios Pantazis     : SARC Basis sets                               
  Anastasios Papadopoulos: AUTO-CI, single reference methods and gradients 
  Taras Petrenko         : pre 6.0 DFT Hessian and TD-DFT gradient,  ECA, NRVS 
  Petra Pikulova         : Analytic Raman intensities                    
  Peter Pinski           : DLPNO-MP2, DLPNO-MP2 Gradient                 
  Shashank Vittal Rao    : ES-AILFT, MagRelax                            
  Christoph Reimann      : Effective Core Potentials                     
  Marius Retegan         : Local ZFS, SOC                                
  Christoph Riplinger    : Optimizer, TS searches, QM/MM, DLPNO-CCSD(T), (RO)-DLPNO pert. Triples 
  Michael Roemelt        : Original ROCIS implementation, recursive CI coupling coefficients
  Masaaki Saitow         : Open-shell DLPNO-CCSD energy and density      
  Barbara Sandhoefer     : DKH picture change effects                    
  Yorick L. A. Schmerwitz: GMF and freeze-and-release deltaSCF, NEB S-IDPP initial path                    
  Kantharuban Sivalingam : CASSCF convergence/infrastructure, NEVPT2, NEVPT3, NEVPT4(SD), FIC-MRCI and CEPA variants
  Bernardo de Souza      : ESD, SOC TD-DFT                               
  Georgi L. Stoychev     : AutoAux, RI-MP2 NMR, DLPNO-MP2 response, X2C  
  Van Anh Tran           : RI-MP2 g-tensors                              
  Willem Van den Heuvel  : Paramagnetic NMR                              
  Zikuan Wang            : NOTCH, Electric field optimization            
  Frank Wennmohs         : Technical directorship and infrastructure     
  Hang Xu                : AUTO-CI-Response properties                   
                                                                         
[FACCTs GmbH]                                                            
  Markus Bursch, Nicolas Foglia, Miquel Garcia-Rates, Ingolf Harden, Hagen Neugebauer, Anastasios Papadopoulos, 
  Christoph Riplinger, Bernardo de Souza, Georgi L. Stoychev                                                    
                                                                 
  APM, various basis sets, CI-OPT, improved COSX, DLPNO-Multilevel,           
  DOCKER, DRACO, updates on ESD, Fragmentator, GOAT, IRC, LR-CPCM, L-BFGS, MBIS, meta-GGA TD-DFT gradient, ML-optimized integration grids, 
  MM, NACMEs, nearIR, NEB, NEB-TS, NL-DFT gradient (VV10), 2- and 3-layer-ONIOM, interface openCOSMO-RS, QMMM,   
  Crystal-QMMM, RESP, rigid body optimization, SF, symmetry and pop. for TD-DFT, various functionals, SOLVATOR                                   
                                                                         
[Other institutions]                                                     
  V. Asgeirsson          : NEB                                           
  Christoph Bannwarth    : sTDA-DFT, sTD-DFT, PBEh-3c, B97-3c, D3        
  Giovanni Bistoni       : ETS/NOCV, ADLD/ADEX, COVALED                  
  Martin Brehm           : Molecular dynamics                            
  Ronald Cardenas        : ETS/NOCV                                      
  Martina Colucci        : COVALED                                       
  Sebastian Ehlert       : rSCAN, r2SCAN, r2SCAN-3c, D4, dhf basis sets  
  Marvin Friede          : D4 for Fr, Ra, Ac-Lr                          
  Lars Goerigk           : TD-DFT with DH, B97 family of functionals     
  Stefan Grimme          : VdW corrections, initial TS optimization, DFT functionals, gCP, sTDA/sTD-DF 
  Waldemar Hujo          : DFT-NL                                        
  H. Jonsson             : NEB                                           
  Holger Kruse           : gCP                                           
  Marcel Mueller         : wB97X-3c, vDZP basis set                      
  Hagen Neugebauer       : wr2SCAN, Native XTB                           
  Gianluca Regni         : ADLD/ADEX                                     
  Tobias Risthaus        : pre 6.0 range-separated hybrid DFT and stability analysis
  Lukas Wittmann         : regularized MP2, r2SCAN double-hybrids, wr2SCAN        
                                                                         
We gratefully acknowledge several colleagues who have allowed us to      
interface, adapt or use parts of their codes:                            
  Ed Valeev, F. Pavosevic, A. Kumar             : LibInt (2-el integral package), F12 methods 
  Garnet Chan, S. Sharma, J. Yang, R. Olivares  : DMRG                   
  Ulf Ekstrom                                   : XCFun DFT Library      
  Mihaly Kallay                                 : mrcc  (arbitrary order and MRCC methods)
  Frank Weinhold                                : gennbo (NPA and NBO analysis)           
  Simon Mueller                                 : openCOSMO-RS                            
  Christopher J. Cramer and Donald G. Truhlar   : smd solvation model                     
  S Lehtola, MJT Oliveira, MAL Marques          : LibXC Library                           
  Liviu Ungur et al                             : ANISO software                          


 Your calculation uses the libint2 library for the computation of 2-el integrals
 For citations please refer to: http://libint.valeyev.net

 Your ORCA version has been built with support for libXC version: 7.0.0
 For citations please refer to: https://libxc.gitlab.io

 This ORCA versions uses:
   CBLAS   interface :  Fast vector & matrix operations
   LAPACKE interface :  Fast linear algebra routines
   SCALAPACK package :  Parallel linear algebra routines
   Shared memory     :  Shared parallel matrices
   BLAS/LAPACK       :  OpenBLAS 0.3.29  USE64BITINT DYNAMIC_ARCH NO_AFFINITY Cooperlake SINGLE_THREADED
        Core in use  :  Cooperlake
   Copyright (c) 2011-2014, The OpenBLAS Project


  ***********************************
  * Starting time: Thu Apr 23 06:45:04 2026
  * Host name:     DESKTOP-DC1WS01
  * Process ID:    370452
  * Working dir.:  /mnt/work-disk/work/test/benzene-opt-vex.res
  ***********************************

NOTE: MaxCore=2000 MB was set to SCF,MP2,MDCI,CIPSI,MRCI,RASCI and CIS
      => If you want to overwrite this, your respective input block should be placed after the MaxCore statement
Warning: RI is on but no J-basis has been assigned. Assigning Def2/J (nothing to worry about!)
================================================================================

----- Orbital basis set information -----
Your calculation utilizes the basis: def2-SVP
   F. Weigend and R. Ahlrichs, Phys. Chem. Chem. Phys. 7, 3297 (2005).

----- AuxJ basis set information -----
Your calculation utilizes the auxiliary basis: def2/J
   H-Rn: F. Weigend, Phys. Chem. Chem. Phys. 8, 1057 (2006).
   Fr-Lr: K. Eichkorn, F. Weigend, O. Treutler, R. Ahlrichs; Theor. Chem. Acc. 97, 119 (1997).

================================================================================
                                        WARNINGS
                       Please study these warnings very carefully!
================================================================================


WARNING: CIS/ROCIS methods need fully converged wavefunctions
  ===> : Setting SCFConvForced true
         You can overwrite this default with %scf ConvForced false 


================================================================================
                                       INPUT FILE
================================================================================
NAME = benzene-opt-vex.inp
|  1> # Generated by MoleditPy ORCA Input Generator Pro Plugin
|  2> %pal nprocs 4 end
|  3> %maxcore 2000
|  4> 
|  5> ! B3LYP def2-SVP
|  6> 
|  7> %tddft
|  8>   NRoots 5
|  9>   IRoot 1
| 10>   Triplets false
| 11>   TDA true
| 12> end
| 13> 
| 14> * xyz 0 1
| 15>   C        0.805933    -1.143600    -0.008261
| 16>   C        1.393065     0.126183    -0.028226
| 17>   C        0.587147     1.269771    -0.019965
| 18>   C       -0.805933     1.143599     0.008262
| 19>   C       -1.393065    -0.126184     0.028225
| 20>   C       -0.587147    -1.269772     0.019964
| 21>   H        1.435961    -2.037509    -0.014772
| 22>   H        2.482025     0.224848    -0.050244
| 23>   H        1.046066     2.262320    -0.035512
| 24>   H       -1.435958     2.037511     0.014773
| 25>   H       -2.482026    -0.224847     0.050244
| 26>   H       -1.046065    -2.262321     0.035513
| 27> *
| 28> 
| 29>                          ****END OF INPUT****
================================================================================

                       ****************************
                       * Single Point Calculation *
                       ****************************

---------------------------------
CARTESIAN COORDINATES (ANGSTROEM)
---------------------------------
  C      0.805933   -1.143600   -0.008261
  C      1.393065    0.126183   -0.028226
  C      0.587147    1.269771   -0.019965
  C     -0.805933    1.143599    0.008262
  C     -1.393065   -0.126184    0.028225
  C     -0.587147   -1.269772    0.019964
  H      1.435961   -2.037509   -0.014772
  H      2.482025    0.224848   -0.050244
  H      1.046066    2.262320   -0.035512
  H     -1.435958    2.037511    0.014773
  H     -2.482026   -0.224847    0.050244
  H     -1.046065   -2.262321    0.035513

----------------------------
CARTESIAN COORDINATES (A.U.)
----------------------------
  NO LB      ZA    FRAG     MASS         X           Y           Z
   0 C     6.0000    0    12.011    1.522993   -2.161091   -0.015611
   1 C     6.0000    0    12.011    2.632511    0.238451   -0.053339
   2 C     6.0000    0    12.011    1.109547    2.399519   -0.037728
   3 C     6.0000    0    12.011   -1.522993    2.161089    0.015613
   4 C     6.0000    0    12.011   -2.632511   -0.238453    0.053338
   5 C     6.0000    0    12.011   -1.109547   -2.399521    0.037726
   6 H     1.0000    0     1.008    2.713573   -3.850334   -0.027915
   7 H     1.0000    0     1.008    4.690348    0.424901   -0.094947
   8 H     1.0000    0     1.008    1.976778    4.275165   -0.067108
   9 H     1.0000    0     1.008   -2.713567    3.850338    0.027917
  10 H     1.0000    0     1.008   -4.690349   -0.424899    0.094947
  11 H     1.0000    0     1.008   -1.976776   -4.275167    0.067110

--------------------------------
INTERNAL COORDINATES (ANGSTROEM)
--------------------------------
 C      0   0   0     0.000000000000     0.00000000     0.00000000
 C      1   0   0     1.399096656324     0.00000000     0.00000000
 C      2   1   0     1.399058819560   120.00183076     0.00000000
 C      3   2   1     1.399066840259   119.99879147     0.00000000
 C      4   3   2     1.399096627786   119.99937653     0.00000000
 C      5   4   3     1.399058819560   120.00183200     0.00000000
 H      1   2   3     1.093641154212   119.99896310   179.99683510
 H      2   1   3     1.093642288936   120.00131259   179.99717922
 H      3   2   1     1.093618706484   120.00299060   179.99645890
 H      4   3   2     1.093641878080   120.00144008   179.99683026
 H      5   4   3     1.093643124356   120.00120254   180.00278728
 H      6   5   4     1.093618315285   120.00303657   180.00332439

---------------------------
INTERNAL COORDINATES (A.U.)
---------------------------
 C      0   0   0     0.000000000000     0.00000000     0.00000000
 C      1   0   0     2.643909515338     0.00000000     0.00000000
 C      2   1   0     2.643838014216   120.00183076     0.00000000
 C      3   2   1     2.643853171141   119.99879147     0.00000000
 C      4   3   2     2.643909461408   119.99937653     0.00000000
 C      5   4   3     2.643838014216   120.00183200     0.00000000
 H      1   2   3     2.066682270246   119.99896310   179.99683510
 H      2   1   3     2.066684414564   120.00131259   179.99717922
 H      3   2   1     2.066639850187   120.00299060   179.99645890
 H      4   3   2     2.066683638158   120.00144008   179.99683026
 H      5   4   3     2.066685993279   120.00120254   180.00278728
 H      6   5   4     2.066639110928   120.00303657   180.00332439

---------------------
BASIS SET INFORMATION
---------------------
There are 2 groups of distinct atoms

 Group   1 Type C   : 7s4p1d contracted to 3s2p1d pattern {511/31/1}
 Group   2 Type H   : 4s1p contracted to 2s1p pattern {31/1}

Atom   0C    basis set group =>   1
Atom   1C    basis set group =>   1
Atom   2C    basis set group =>   1
Atom   3C    basis set group =>   1
Atom   4C    basis set group =>   1
Atom   5C    basis set group =>   1
Atom   6H    basis set group =>   2
Atom   7H    basis set group =>   2
Atom   8H    basis set group =>   2
Atom   9H    basis set group =>   2
Atom  10H    basis set group =>   2
Atom  11H    basis set group =>   2
---------------------------------
AUXILIARY/J BASIS SET INFORMATION
---------------------------------
There are 2 groups of distinct atoms

 Group   1 Type C   : 12s5p4d2f1g contracted to 6s4p3d1f1g pattern {711111/2111/211/2/1}
 Group   2 Type H   : 5s2p1d contracted to 3s1p1d pattern {311/2/1}

Atom   0C    basis set group =>   1
Atom   1C    basis set group =>   1
Atom   2C    basis set group =>   1
Atom   3C    basis set group =>   1
Atom   4C    basis set group =>   1
Atom   5C    basis set group =>   1
Atom   6H    basis set group =>   2
Atom   7H    basis set group =>   2
Atom   8H    basis set group =>   2
Atom   9H    basis set group =>   2
Atom  10H    basis set group =>   2
Atom  11H    basis set group =>   2


           ************************************************************
           *        Program running with 4 parallel MPI-processes     *
           *              working on a common directory               *
           ************************************************************
------------------------------------------------------------------------------
                             ORCA STARTUP CALCULATIONS
                           -- RI-GTO INTEGRALS CHOSEN --
------------------------------------------------------------------------------
------------------------------------------------------------------------------
                   ___                                                        
                  /   \      - P O W E R E D   B Y -                         
                 /     \                                                     
                 |  |  |   _    _      __       _____    __    __             
                 |  |  |  | |  | |    /  \     |  _  \  |  |  /  |          
                  \  \/   | |  | |   /    \    | | | |  |  | /  /          
                 / \  \   | |__| |  /  /\  \   | |_| |  |  |/  /          
                |  |  |   |  __  | /  /__\  \  |    /   |      \           
                |  |  |   | |  | | |   __   |  |    \   |  |\   \          
                \     /   | |  | | |  |  |  |  | |\  \  |  | \   \       
                 \___/    |_|  |_| |__|  |__|  |_| \__\ |__|  \__/        
                                                                              
                      - O R C A' S   B I G   F R I E N D -                    
                                      &                                       
                       - I N T E G R A L  F E E D E R -                       
                                                                              
 v1 FN, 2020, v2 2021, v3 2022-2024                                           
------------------------------------------------------------------------------


----------------------
SHARK INTEGRAL PACKAGE
----------------------

Number of atoms                             ...     12
Number of basis functions                   ...    114
Number of shells                            ...     54
Maximum angular momentum                    ...      2
Integral batch strategy                     ... SHARK/LIBINT Hybrid
RI-J (if used) integral strategy            ... SPLIT-RIJ (Revised 2003 algorithm where possible)
Printlevel                                  ...      1
Contraction scheme used                     ... SEGMENTED contraction
Prescreening option                         ... SCHWARTZ
   Thresh                                   ... 1.000e-10
   Tcut                                     ... 1.000e-11
   Tpresel                                  ... 1.000e-11 
Coulomb Range Separation                    ... NOT USED
Exchange Range Separation                   ... NOT USED
Multipole approximations                    ... NOT USED
Finite Nucleus Model                        ... NOT USED
CABS basis                                  ... NOT available
Auxiliary Coulomb fitting basis             ... AVAILABLE
   # of basis functions in Aux-J            ...    360
   # of shells in Aux-J                     ...    120
   Maximum angular momentum in Aux-J        ...      4
Auxiliary J/K fitting basis                 ... NOT available
Auxiliary Correlation fitting basis         ... NOT available
Auxiliary 'external' fitting basis          ... NOT available

Checking pre-screening integrals            ... done (  0.0 sec) Dimension = 54
   => SHARK Basis and OBASIS are compatible. Storing Pre-screening
Shell pair information
Shell pair cut-off parameter TPreSel        ...   1.0e-11
Total number of shell pairs                 ...      1485
Shell pairs after pre-screening             ...      1455
Total number of primitive shell pairs       ...      5349
Primitive shell pairs kept                  ...      4101
          la=0 lb=0:    456 shell pairs
          la=1 lb=0:    522 shell pairs
          la=1 lb=1:    168 shell pairs
          la=2 lb=0:    180 shell pairs
          la=2 lb=1:    108 shell pairs
          la=2 lb=2:     21 shell pairs

Checking whether 4 symmetric matrices of dimension 114 fit in memory
:Max Core in MB      =   2000.00
 MB in use           =      5.19
 MB left             =   1994.81
 MB needed           =      0.20
 Data fit in memory  = YES
Calculating RI/J V-Matrix + Cholesky decomp.... done (  0.0 sec)
Calculating Nuclear repulsion               ... done (  0.0 sec) ENN=    202.697870880646 Eh

Diagonalization of the overlap matrix:
Smallest eigenvalue                        ... 3.243e-04
Time for diagonalization                   ...    0.001 sec
Threshold for overlap eigenvalues          ... 1.000e-07
Number of eigenvalues below threshold      ... 0
Time for construction of square roots      ...    0.001 sec
Total time needed                          ...    0.004 sec

-------------------
DFT GRID GENERATION
-------------------

General Integration Accuracy     IntAcc      ... 4.388
Radial Grid Type                 RadialGrid  ... OptM3 with GC (2021)
Angular Grid (max. ang.)         AngularGrid ... 4 (Lebedev-302)
Angular grid pruning method      GridPruning ... 4 (adaptive)
Weight generation scheme         WeightScheme... mBecke (2022)
Basis function cutoff            BFCut       ... 1.0000e-10
Integration weight cutoff        WCut        ... 1.0000e-14
Partially contracted basis set               ... off
Rotationally invariant grid construction     ... off
Angular grids for H and He will be reduced by one unit

Total number of grid points                  ...    55504
Total number of batches                      ...      870
Average number of points per batch           ...       63
Average number of grid points per atom       ...     4625

--------------------
COSX GRID GENERATION
--------------------

GRIDX 1
-------
General Integration Accuracy     IntAcc      ... 3.816
Radial Grid Type                 RadialGrid  ... OptM3 with GC (2021)
Angular Grid (max. ang.)         AngularGrid ... 1 (Lebedev-50)
Angular grid pruning method      GridPruning ... 4 (adaptive)
Weight generation scheme         WeightScheme... mBecke (2022)
Basis function cutoff            BFCut       ... 1.0000e-10
Integration weight cutoff        WCut        ... 1.0000e-14
Partially contracted basis set               ... on
Rotationally invariant grid construction     ... off
Angular grids for H and He will be reduced by one unit

Total number of grid points                  ...     7122
Total number of batches                      ...       60
Average number of points per batch           ...      118
Average number of grid points per atom       ...      594
UseSFitting                                  ... on

GRIDX 2
-------
General Integration Accuracy     IntAcc      ... 4.020
Radial Grid Type                 RadialGrid  ... OptM3 with GC (2021)
Angular Grid (max. ang.)         AngularGrid ... 2 (Lebedev-110)
Angular grid pruning method      GridPruning ... 4 (adaptive)
Weight generation scheme         WeightScheme... mBecke (2022)
Basis function cutoff            BFCut       ... 1.0000e-10
Integration weight cutoff        WCut        ... 1.0000e-14
Partially contracted basis set               ... on
Rotationally invariant grid construction     ... off
Angular grids for H and He will be reduced by one unit

Total number of grid points                  ...    15488
Total number of batches                      ...      126
Average number of points per batch           ...      122
Average number of grid points per atom       ...     1291
UseSFitting                                  ... on

GRIDX 3
-------
General Integration Accuracy     IntAcc      ... 4.338
Radial Grid Type                 RadialGrid  ... OptM3 with GC (2021)
Angular Grid (max. ang.)         AngularGrid ... 3 (Lebedev-194)
Angular grid pruning method      GridPruning ... 4 (adaptive)
Weight generation scheme         WeightScheme... mBecke (2022)
Basis function cutoff            BFCut       ... 1.0000e-10
Integration weight cutoff        WCut        ... 1.0000e-14
Partially contracted basis set               ... on
Rotationally invariant grid construction     ... off
Angular grids for H and He will be reduced by one unit

Total number of grid points                  ...    34060
Total number of batches                      ...      274
Average number of points per batch           ...      124
Average number of grid points per atom       ...     2838
UseSFitting                                  ... on
Grids setup in   0.4 sec
Initializing property integral containers    ... done (  0.0 sec)

SHARK setup successfully completed in   0.5 seconds

Maximum memory used throughout the entire STARTUP-calculation: 16.0 MB


           ************************************************************
           *        Program running with 4 parallel MPI-processes     *
           *              working on a common directory               *
           ************************************************************
-------------------------------------------------------------------------------
                                 ORCA GUESS
                   Start orbitals & Density for SCF / CASSCF
-------------------------------------------------------------------------------

------------
SCF SETTINGS
------------
Hamiltonian:
 Density Functional     Method          .... DFT(GTOs)
 Exchange Functional    Exchange        .... B88
   X-Alpha parameter    XAlpha          ....  0.666667
   Becke's b parameter  XBeta           ....  0.004200
 Correlation Functional Correlation     .... LYP
 LDA part of GGA corr.  LDAOpt          .... VWN-5
 Gradients option       PostSCFGGA      .... off
 Hybrid DFT is turned on
   Fraction HF Exchange ScalHFX         ....  0.200000
   Scaling of DF-GGA-X  ScalDFX         ....  0.720000
   Scaling of DF-GGA-C  ScalDFC         ....  0.810000
   Scaling of DF-LDA-C  ScalLDAC        ....  1.000000
   Perturbative correction              ....  0.000000
   NL short-range parameter             ....  4.800000
 RI-approximation to the Coulomb term is turned on
   Number of AuxJ basis functions       .... 360
   RIJ-COSX (HFX calculated with COS-X)).... on


General Settings:
 Integral files         IntName         .... benzene-opt-vex
 Hartree-Fock type      HFTyp           .... RHF
 Total Charge           Charge          ....    0
 Multiplicity           Mult            ....    1
 Number of Electrons    NEL             ....   42
 Basis Dimension        Dim             ....  114
 Nuclear Repulsion      ENuc            ....    202.6978708806 Eh

Convergence Acceleration:
 AO-DIIS                CNVDIIS         .... on
   Start iteration      DIISMaxIt       ....    12
   Startup error        DIISStart       ....  0.200000
   # of expansion vecs  DIISMaxEq       ....     5
   Bias factor          DIISBfac        ....   1.050
   Max. coefficient     DIISMaxC        ....  10.000
 MO-DIIS                CNVKDIIS        .... off
 Trust-Rad. Augm. Hess. CNVTRAH         .... auto
   Auto Start mean grad. ratio tolernc. ....  1.125000
   Auto Start start iteration           ....    50
   Auto Start num. interpolation iter.  ....    10
   Max. Number of Micro iterations      ....    24
   Max. Number of Macro iterations      .... Maxiter - #DIIS iter
   Number of Davidson start vectors     ....     2
   Converg. threshold    (grad. norm)   ....   5.000e-05
   Grad. Scal. Fac. for Micro threshold ....   0.100
   Minimum threshold for Micro iter.    ....   1.000e-02
   NR start threshold (gradient norm)   ....   1.000e-04
   Initial trust radius                 ....   0.400
   Minimum AH scaling param. (alpha)    ....   1.000
   Maximum AH scaling param. (alpha)    .... 1000.000
   Quad. conv. algorithm                .... NR
   White noise on init. David. guess    .... on
   Maximum white noise                  ....   0.010
   Pseudo random numbers                .... off
   Inactive MOs                         .... canonical
   Orbital update algorithm             .... Taylor
   Preconditioner                       .... Diag
   Full preconditioner red. dimension   ....   250
 SOSCF                 CNVSOSCF           .... on
   Start iteration     SOSCFMaxIt         ....   150
   Startup grad/error  SOSCFStart         ....  0.003300
   Hessian update      SOSCFHessUp        .... L-BFGS
   Autom. constraints  SOSCFAutoConstrain .... off
 Level Shifting         CNVShift        .... on
   Level shift para.    LevelShift      ....    0.2500
   Turn off err/grad.   ShiftErr        ....    0.0010
 Zerner damping         CNVZerner       .... off
 Static damping         CNVDamp         .... on
   Fraction old density DampFac         ....    0.7000
   Max. Damping (<1)    DampMax         ....    0.9800
   Min. Damping (>=0)   DampMin         ....    0.0000
   Turn off err/grad.   DampErr         ....    0.1000

SCF Procedure:
 Maximum # iterations   MaxIter         ....   125
 SCF integral mode      SCFMode         .... Direct
   Integral package                     .... SHARK and LIBINT hybrid scheme
 Reset frequency        DirectResetFreq ....    20
 Integral Threshold     Thresh          ....  1.000e-10 Eh
 Primitive CutOff       TCut            ....  1.000e-11 Eh

Convergence Tolerance:
 Convergence Check Mode ConvCheckMode   .... Total+1el-Energy
 Convergence forced     ConvForced      .... 1
 Energy Change          TolE            ....  1.000e-06 Eh
 1-El. energy change                    ....  1.000e-03 Eh
 Orbital Gradient       TolG            ....  5.000e-05
 Orbital Rotation angle TolX            ....  5.000e-05
 DIIS Error             TolErr          ....  1.000e-06

------------------------------
INITIAL GUESS: MODEL POTENTIAL
------------------------------
Loading Hartree-Fock densities                     ... done
Calculating cut-offs                               ... done
Initializing the effective Hamiltonian             ... done
Setting up the integral package (SHARK)            ... done
Starting the Coulomb interaction                   ... done (   0.0 sec)
Making the grid                                    ... done (   0.1 sec)
Mapping shells                                     ... done
Starting the XC term evaluation                    ... done (   0.0 sec)
  promolecular density results
     # of electrons  =     41.996695622
     EX              =    -32.591283486
     EC              =     -1.375923142
     EX+EC           =    -33.967206628
Transforming the Hamiltonian                       ... done (   0.0 sec)
Diagonalizing the Hamiltonian                      ... done (   0.0 sec)
Back transforming the eigenvectors                 ... done (   0.0 sec)
Now organizing SCF variables                       ... done
                      ------------------
                      INITIAL GUESS DONE (   0.1 sec)
                      ------------------
             **** ENERGY FILE WAS UPDATED (benzene-opt-vex.en.tmp) ****
Finished Guess after   0.2 sec
Maximum memory used throughout the entire GUESS-calculation: 7.7 MB


           ************************************************************
           *        Program running with 4 parallel MPI-processes     *
           *              working on a common directory               *
           ************************************************************

-------------------------------------------------------------------------------------------
                                      ORCA LEAN-SCF
                              memory conserving SCF solver
-------------------------------------------------------------------------------------------

----------------------------------------D-I-I-S--------------------------------------------
Iteration    Energy (Eh)           Delta-E    RMSDP     MaxDP     DIISErr   Damp  Time(sec)
-------------------------------------------------------------------------------------------
               ***  Starting incremental Fock matrix formation  ***
    1    -231.7990844027272317     0.00e+00  8.41e-03  4.89e-02  1.20e-01  0.700   0.4
    2    -231.8576004568486439    -5.85e-02  6.07e-03  3.28e-02  6.14e-02  0.700   0.3
                               ***Turning on AO-DIIS***
    3    -231.8836598762487426    -2.61e-02  2.78e-03  1.21e-02  2.75e-02  0.700   0.3
    4    -231.8986296696881766    -1.50e-02  5.22e-03  1.99e-02  1.56e-02  0.000   0.3
    5    -231.9304748148611282    -3.18e-02  5.77e-04  3.38e-03  4.64e-03  0.000   0.3
                              *** Initializing SOSCF ***
---------------------------------------S-O-S-C-F--------------------------------------
Iteration    Energy (Eh)           Delta-E    RMSDP     MaxDP     MaxGrad    Time(sec)
--------------------------------------------------------------------------------------
    6    -231.9306416375675042    -1.67e-04  2.39e-04  1.26e-03  1.01e-03     0.3
               *** Restarting incremental Fock matrix formation ***
    7    -231.9307001845018874    -5.85e-05  1.37e-04  8.48e-04  2.19e-04     0.4
    8    -231.9307006471578632    -4.63e-07  2.88e-05  1.86e-04  1.35e-04     0.4
                 **** Energy Check signals convergence ****

               *****************************************************
               *                     SUCCESS                       *
               *           SCF CONVERGED AFTER   8 CYCLES          *
               *****************************************************

Recomputing exchange energy using gridx3       ... done (    0.580 sec)
Old exchange energy                            :     -6.628075500 Eh
New exchange energy                            :     -6.628159428 Eh
Exchange energy change after final integration :     -0.000083927 Eh
Total energy after final integration           :   -231.930784926 Eh
             **** ENERGY FILE WAS UPDATED (benzene-opt-vex.en.tmp) ****

----------------
TOTAL SCF ENERGY
----------------

Total Energy       :       -231.93078492611488 Eh           -6311.15751 eV

Components:
Nuclear Repulsion  :        202.69787088064638 Eh            5515.68948 eV
Electronic Energy  :       -434.62857187929490 Eh          -11826.84471 eV
One Electron Energy:       -712.34056692978743 Eh          -19383.77228 eV
Two Electron Energy:        277.71199505049253 Eh            7556.92757 eV

Virial components:
Potential Energy   :       -461.23649641710324 Eh          -12550.88314 eV
Kinetic Energy     :        229.30571149098836 Eh            6239.72563 eV
Virial Ratio       :          2.01144791997573

DFT components:
N(Alpha)           :       20.999998555676 electrons
N(Beta)            :       20.999998555676 electrons
N(Total)           :       41.999997111353 electrons
E(X)               :      -26.301431633127 Eh       
E(C)               :       -1.631829551458 Eh       
E(XC)              :      -27.933261184586 Eh       

---------------
SCF CONVERGENCE
---------------

  Last Energy change         ...    4.6266e-07  Tolerance :   1.0000e-06
  Last MAX-Density change    ...    1.8618e-04  Tolerance :   1.0000e-05
  Last RMS-Density change    ...    2.8770e-05  Tolerance :   1.0000e-06
  Last DIIS Error            ...    1.0109e-03  Tolerance :   1.0000e-06
  Last Orbital Gradient      ...    1.3533e-04  Tolerance :   5.0000e-05
  Last Orbital Rotation      ...    1.0965e-04  Tolerance :   5.0000e-05


----------------
ORBITAL ENERGIES
----------------

  NO   OCC          E(Eh)            E(eV) 
   0   2.0000     -10.188343      -277.2389 
   1   2.0000     -10.188198      -277.2350 
   2   2.0000     -10.188186      -277.2346 
   3   2.0000     -10.187805      -277.2243 
   4   2.0000     -10.187795      -277.2240 
   5   2.0000     -10.187687      -277.2211 
   6   2.0000      -0.841741       -22.9049 
   7   2.0000      -0.733775       -19.9670 
   8   2.0000      -0.733774       -19.9670 
   9   2.0000      -0.593351       -16.1459 
  10   2.0000      -0.593344       -16.1457 
  11   2.0000      -0.517891       -14.0925 
  12   2.0000      -0.453230       -12.3330 
  13   2.0000      -0.444970       -12.1082 
  14   2.0000      -0.418529       -11.3887 
  15   2.0000      -0.418517       -11.3884 
  16   2.0000      -0.364936        -9.9304 
  17   2.0000      -0.342964        -9.3325 
  18   2.0000      -0.342956        -9.3323 
  19   2.0000      -0.252660        -6.8752 
  20   2.0000      -0.252649        -6.8749 
  21   0.0000      -0.005861        -0.1595 
  22   0.0000      -0.005854        -0.1593 
  23   0.0000       0.060182         1.6376 
  24   0.0000       0.101529         2.7627 
  25   0.0000       0.101531         2.7628 
  26   0.0000       0.139231         3.7887 
  27   0.0000       0.139255         3.7893 
  28   0.0000       0.151209         4.1146 
  29   0.0000       0.159893         4.3509 
  30   0.0000       0.289481         7.8772 
  31   0.0000       0.289515         7.8781 
*Only the first 10 virtual orbitals were printed.

                    ********************************
                    * MULLIKEN POPULATION ANALYSIS *
                    ********************************

-----------------------
MULLIKEN ATOMIC CHARGES
-----------------------
   0 C :    0.016422
   1 C :    0.016293
   2 C :    0.016646
   3 C :    0.016421
   4 C :    0.016294
   5 C :    0.016647
   6 H :   -0.016424
   7 H :   -0.016320
   8 H :   -0.016618
   9 H :   -0.016424
  10 H :   -0.016320
  11 H :   -0.016618
Sum of atomic charges:    0.0000000

--------------------------------
MULLIKEN REDUCED ORBITAL CHARGES
--------------------------------
  0 C s       :     3.159953  s :     3.159953
      pz      :     0.986698  p :     2.788970
      px      :     0.921096
      py      :     0.881176
      dz2     :     0.002506  d :     0.034655
      dxz     :     0.004975
      dyz     :     0.003628
      dx2y2   :     0.010830
      dxy     :     0.012716

  1 C s       :     3.159713  s :     3.159713
      pz      :     0.986710  p :     2.789336
      px      :     0.842882
      py      :     0.959744
      dz2     :     0.002502  d :     0.034658
      dxz     :     0.002328
      dyz     :     0.006278
      dx2y2   :     0.012913
      dxy     :     0.010637

  2 C s       :     3.159883  s :     3.159883
      pz      :     0.986663  p :     2.788816
      px      :     0.939592
      py      :     0.862562
      dz2     :     0.002503  d :     0.034655
      dxz     :     0.005601
      dyz     :     0.003004
      dx2y2   :     0.011579
      dxy     :     0.011968

  3 C s       :     3.159953  s :     3.159953
      pz      :     0.986698  p :     2.788971
      px      :     0.921099
      py      :     0.881174
      dz2     :     0.002506  d :     0.034655
      dxz     :     0.004975
      dyz     :     0.003628
      dx2y2   :     0.010830
      dxy     :     0.012716

  4 C s       :     3.159712  s :     3.159712
      pz      :     0.986710  p :     2.789336
      px      :     0.842882
      py      :     0.959744
      dz2     :     0.002502  d :     0.034658
      dxz     :     0.002328
      dyz     :     0.006278
      dx2y2   :     0.012913
      dxy     :     0.010637

  5 C s       :     3.159884  s :     3.159884
      pz      :     0.986663  p :     2.788814
      px      :     0.939590
      py      :     0.862561
      dz2     :     0.002503  d :     0.034655
      dxz     :     0.005601
      dyz     :     0.003004
      dx2y2   :     0.011579
      dxy     :     0.011968

  6 H s       :     0.993750  s :     0.993750
      pz      :     0.004673  p :     0.022674
      px      :     0.007084
      py      :     0.010918

  7 H s       :     0.993650  s :     0.993650
      pz      :     0.004676  p :     0.022670
      px      :     0.014602
      py      :     0.003392

  8 H s       :     0.993941  s :     0.993941
      pz      :     0.004675  p :     0.022677
      px      :     0.005311
      py      :     0.012692

  9 H s       :     0.993750  s :     0.993750
      pz      :     0.004673  p :     0.022674
      px      :     0.007084
      py      :     0.010918

 10 H s       :     0.993649  s :     0.993649
      pz      :     0.004676  p :     0.022670
      px      :     0.014602
      py      :     0.003392

 11 H s       :     0.993941  s :     0.993941
      pz      :     0.004675  p :     0.022677
      px      :     0.005311
      py      :     0.012692



                     *******************************
                     * LOEWDIN POPULATION ANALYSIS *
                     *******************************

----------------------
LOEWDIN ATOMIC CHARGES
----------------------
   0 C :   -0.026249
   1 C :   -0.026300
   2 C :   -0.026220
   3 C :   -0.026249
   4 C :   -0.026300
   5 C :   -0.026220
   6 H :    0.026262
   7 H :    0.026281
   8 H :    0.026226
   9 H :    0.026262
  10 H :    0.026281
  11 H :    0.026226

-------------------------------
LOEWDIN REDUCED ORBITAL CHARGES
-------------------------------
  0 C s       :     2.864034  s :     2.864034
      pz      :     0.968662  p :     3.072593
      px      :     1.057290
      py      :     1.046641
      dz2     :     0.006091  d :     0.089622
      dxz     :     0.010305
      dyz     :     0.007053
      dx2y2   :     0.030947
      dxy     :     0.035226

  1 C s       :     2.864033  s :     2.864033
      pz      :     0.968683  p :     3.072644
      px      :     1.036362
      py      :     1.067598
      dz2     :     0.006083  d :     0.089624
      dxz     :     0.003918
      dyz     :     0.013444
      dx2y2   :     0.035674
      dxy     :     0.030505

  2 C s       :     2.864030  s :     2.864030
      pz      :     0.968642  p :     3.072559
      px      :     1.062226
      py      :     1.041692
      dz2     :     0.006088  d :     0.089631
      dxz     :     0.011813
      dyz     :     0.005548
      dx2y2   :     0.032648
      dxy     :     0.033534

  3 C s       :     2.864034  s :     2.864034
      pz      :     0.968662  p :     3.072593
      px      :     1.057290
      py      :     1.046641
      dz2     :     0.006091  d :     0.089622
      dxz     :     0.010305
      dyz     :     0.007053
      dx2y2   :     0.030947
      dxy     :     0.035226

  4 C s       :     2.864033  s :     2.864033
      pz      :     0.968683  p :     3.072644
      px      :     1.036362
      py      :     1.067598
      dz2     :     0.006083  d :     0.089624
      dxz     :     0.003918
      dyz     :     0.013444
      dx2y2   :     0.035674
      dxy     :     0.030505

  5 C s       :     2.864030  s :     2.864030
      pz      :     0.968642  p :     3.072560
      px      :     1.062226
      py      :     1.041692
      dz2     :     0.006088  d :     0.089631
      dxz     :     0.011813
      dyz     :     0.005548
      dx2y2   :     0.032648
      dxy     :     0.033534

  6 H s       :     0.907411  s :     0.907411
      pz      :     0.014031  p :     0.066327
      px      :     0.020997
      py      :     0.031300

  7 H s       :     0.907390  s :     0.907390
      pz      :     0.014042  p :     0.066329
      px      :     0.041212
      py      :     0.011075

  8 H s       :     0.907445  s :     0.907445
      pz      :     0.014036  p :     0.066329
      px      :     0.016223
      py      :     0.036069

  9 H s       :     0.907411  s :     0.907411
      pz      :     0.014030  p :     0.066327
      px      :     0.020997
      py      :     0.031300

 10 H s       :     0.907390  s :     0.907390
      pz      :     0.014042  p :     0.066329
      px      :     0.041212
      py      :     0.011074

 11 H s       :     0.907445  s :     0.907445
      pz      :     0.014036  p :     0.066329
      px      :     0.016223
      py      :     0.036069



                      *****************************
                      * MAYER POPULATION ANALYSIS *
                      *****************************

  NA   - Mulliken gross atomic population
  ZA   - Total nuclear charge
  QA   - Mulliken gross atomic charge
  VA   - Mayer's total valence
  BVA  - Mayer's bonded valence
  FA   - Mayer's free valence

  ATOM       NA         ZA         QA         VA         BVA        FA
  0 C      5.9836     6.0000     0.0164     3.8538     3.8538    -0.0000
  1 C      5.9837     6.0000     0.0163     3.8539     3.8539     0.0000
  2 C      5.9834     6.0000     0.0166     3.8539     3.8539     0.0000
  3 C      5.9836     6.0000     0.0164     3.8538     3.8538    -0.0000
  4 C      5.9837     6.0000     0.0163     3.8539     3.8539     0.0000
  5 C      5.9834     6.0000     0.0166     3.8539     3.8539     0.0000
  6 H      1.0164     1.0000    -0.0164     0.9773     0.9773    -0.0000
  7 H      1.0163     1.0000    -0.0163     0.9773     0.9773     0.0000
  8 H      1.0166     1.0000    -0.0166     0.9773     0.9773     0.0000
  9 H      1.0164     1.0000    -0.0164     0.9773     0.9773     0.0000
 10 H      1.0163     1.0000    -0.0163     0.9773     0.9773     0.0000
 11 H      1.0166     1.0000    -0.0166     0.9773     0.9773     0.0000

  Mayer bond orders larger than 0.100000
B(  0-C ,  1-C ) :   1.3925 B(  0-C ,  5-C ) :   1.3924 B(  0-C ,  6-H ) :   0.9840 
B(  1-C ,  2-C ) :   1.3926 B(  1-C ,  7-H ) :   0.9838 B(  2-C ,  3-C ) :   1.3924 
B(  2-C ,  8-H ) :   0.9840 B(  3-C ,  4-C ) :   1.3925 B(  3-C ,  9-H ) :   0.9840 
B(  4-C ,  5-C ) :   1.3926 B(  4-C , 10-H ) :   0.9838 B(  5-C , 11-H ) :   0.9840 


-------
TIMINGS
-------

Total SCF time: 0 days 0 hours 0 min 3 sec 

Total time                  ....       3.616 sec
Sum of individual times     ....       3.264 sec  ( 90.3%)

SCF preparation             ....       0.123 sec  (  3.4%)
Fock matrix formation       ....       3.021 sec  ( 83.5%)
  Startup                   ....       0.004 sec  (  0.1% of F)
  Split-RI-J                ....       0.363 sec  ( 12.0% of F)
  Chain of spheres X        ....       2.283 sec  ( 75.6% of F)
  XC integration            ....       0.630 sec  ( 20.9% of F)
    XC Preparation          ....       0.000 sec  (  0.0% of XC)
    Basis function eval.    ....       0.180 sec  ( 28.6% of XC)
    Density eval.           ....       0.119 sec  ( 18.9% of XC)
    XC-Functional eval.     ....       0.031 sec  (  5.0% of XC)
    XC-Potential eval.      ....       0.089 sec  ( 14.1% of XC)
Diagonalization             ....       0.000 sec  (  0.0%)
Density matrix formation    ....       0.016 sec  (  0.4%)
Total Energy calculation    ....       0.008 sec  (  0.2%)
Population analysis         ....       0.010 sec  (  0.3%)
Orbital Transformation      ....       0.013 sec  (  0.4%)
Orbital Orthonormalization  ....       0.000 sec  (  0.0%)
DIIS solution               ....       0.056 sec  (  1.5%)
SOSCF solution              ....       0.017 sec  (  0.5%)
Finished LeanSCF after   3.6 sec

Maximum memory used throughout the entire LEANSCF-calculation: 10.1 MB


           ************************************************************
           *        Program running with 4 parallel MPI-processes     *
           *              working on a common directory               *
           ************************************************************

------------------------------------------------------------------------------
                         ORCA PROPERTY INTEGRAL CALCULATIONS
------------------------------------------------------------------------------

GBWName                                   ... benzene-opt-vex.gbw
Number of atoms                           ...     12
Number of basis functions                 ...    114
Max core memory                           ...   2000 MB

Dipole integrals                          ... YES
Quadrupole integrals                      ...  NO
Linear momentum integrals                 ... YES
Angular momentum integrals                ... YES
Higher moments length integrals           ...  NO
Higher moments velocity integrals         ...  NO
Kinetic energy integrals                  ...  NO
GIAO right hand sides                     ...  NO
GIAO dipole derivative integrals          ...  NO
SOC integrals                             ...  NO
EPR diamagnetic integrals (GIAO)          ...  NO
EPR gauge integrals                       ...  NO
Field gradient integrals                  ...  NO (   0 nuclei)
Spin-dipole/Fermi contact integrals       ...  NO (   0 nuclei)
Contact density integrals                 ...  NO (   0 nuclei)
Nucleus-orbit integrals                   ...  NO (   0 nuclei)
Geometric perturbations                   ...  NO (  12 nuclei)

Choice of electric origin   ... Center of mass
Position of electric origin ... (  0.0000, -0.0000, -0.0000) 
Choice of magnetic origin   ... GIAO
Position of magnetic origin ... (  0.0000,  0.0000,  0.0000) 

Calculating integrals                     ... Electric Dipole (Length)     done (  0.0 sec)
Calculating integrals                     ... Linear Momentum              done (  0.0 sec)
Calculating integrals                     ... Angular Momentum  (ElOri)    done (  0.0 sec)

Property integrals calculated in   0.0 sec

Maximum memory used throughout the entire PROPINT-calculation: 7.9 MB


           ************************************************************
           *        Program running with 4 parallel MPI-processes     *
           *              working on a common directory               *
           ************************************************************
------------------------------------------------------------------------------
                        ORCA TD-DFT/TDA CALCULATION
------------------------------------------------------------------------------

Input orbitals are from        ... benzene-opt-vex.gbw
CI-vector output               ... benzene-opt-vex.cis
Solver                         ... FN-2001
Tamm-Dancoff approximation     ... operative
CIS-Integral strategy          ... AO-integrals
Integral handling              ... AO integral Direct
Max. core memory used          ... 2000 MB
Reference state                ... RHF
Generation of triplets         ... off
Follow IRoot                   ... off
Number of operators            ... 1
Orbital ranges used for CIS calculation:
 Operator 0:  Orbitals   6... 20  to  21...113
XAS localization array:
 Operator 0:  Orbitals  -1... -1

-------------------
XC-INTEGRATION GRID
-------------------

General Integration Accuracy     IntAcc      ... 3.467
Radial Grid Type                 RadialGrid  ... OptM3 with GC (2021)
Angular Grid (max. ang.)         AngularGrid ... 1 (Lebedev-50)
Angular grid pruning method      GridPruning ... 4 (adaptive)
Weight generation scheme         WeightScheme... mBecke (2022)
Basis function cutoff            BFCut       ... 1.0000e-10
Integration weight cutoff        WCut        ... 1.0000e-14
Partially contracted basis set               ... off
Rotationally invariant grid construction     ... off
Angular grids for H and He will be reduced by one unit

Total number of grid points                  ...     8122
Total number of batches                      ...      132
Average number of points per batch           ...       61
Average number of grid points per atom       ...      677

---------------------
COSX-INTEGRATION GRID
---------------------

General Integration Accuracy     IntAcc      ... 3.067
Radial Grid Type                 RadialGrid  ... OptM3 with GC (2021)
Angular Grid (max. ang.)         AngularGrid ... 1 (Lebedev-50)
Angular grid pruning method      GridPruning ... 4 (adaptive)
Weight generation scheme         WeightScheme... mBecke (2022)
Basis function cutoff            BFCut       ... 1.0000e-10
Integration weight cutoff        WCut        ... 1.0000e-14
Partially contracted basis set               ... on
Rotationally invariant grid construction     ... off
Angular grids for H and He will be reduced by one unit

Total number of grid points                  ...     3728
Total number of batches                      ...       36
Average number of points per batch           ...      103
Average number of grid points per atom       ...      311

---------------
TD-DFT XC SETUP
---------------

DFT calculation                         ... on
Name of the grid file                   ... benzene-opt-vex.grid_cis.tmp
RI-approximation                        ... on
Aux-basis dimension                     ... 0
Exchange functional (TD-DFT)            ... B88
   X-Alpha parameter    XAlpha (TD-DFT) ...  0.666667
   Becke's b parameter  XBeta (TD-DFT)  ...  0.004200
Correlation functional (TD-DFT)         ... LYP
 LDA part of GGA corr.  LDAOpt (TD-DFT) ... VWN-5
Hybrid DFT                              ... on
   Exchange mixing (TD-DFT)             ...  0.200
   GGA exch. scaling (TD-DFT)           ...  0.720
   GGA corr. scaling (TD-DFT)           ...  0.810

Building densities             ... done
Calculating rho(r) on the grid ... done
Building xc-kernel on the grid ... done
                    *** TD-DFT CALCULATION INITIALIZED ***

------------------------
DAVIDSON-DIAGONALIZATION
------------------------

Dimension of the eigenvalue problem            ...   1395
Number of roots to be determined               ...      5
Maximum size of the expansion space            ...     50
Maximum number of iterations                   ...    100
Convergence tolerance for the residual         ...    1.000e-06
Convergence tolerance for the energies         ...    1.000e-06
Orthogonality tolerance                        ...    1.000e-14
Level Shift                                    ...    0.000e+00
Constructing the preconditioner                ... o.k.
Building the initial guess                     ... o.k.
Number of trial vectors determined             ...     50


                       ****Iteration    0****
   Time for iteration     :  TOTAL=0.7 TRAFO=0.0 RIJ=0.1 COSX=0.4 XC=0.2
   Size of expansion space: 15
   Lowest Energy          :     0.203776455882
   Maximum Energy change  :     0.285068828845 (vector 4)
   Maximum residual norm  :     0.035335558220

                       ****Iteration    1****
   Time for iteration     :  TOTAL=0.3 TRAFO=0.0 RIJ=0.1 COSX=0.1 XC=0.1
   Size of expansion space: 20
   Lowest Energy          :     0.201905634326
   Maximum Energy change  :     0.028449249830 (vector 1)
   Maximum residual norm  :     0.000108325822

                       ****Iteration    2****
   Time for iteration     :  TOTAL=0.3 TRAFO=0.0 RIJ=0.1 COSX=0.1 XC=0.1
   Size of expansion space: 25
   Lowest Energy          :     0.201895990440
   Maximum Energy change  :     0.000192457532 (vector 1)
   Maximum residual norm  :     0.000002605957

                       ****Iteration    3****
   Time for iteration     :  TOTAL=0.3 TRAFO=0.0 RIJ=0.1 COSX=0.1 XC=0.1
   Size of expansion space: 30
   Lowest Energy          :     0.201895976655
   Maximum Energy change  :     0.000003617721 (vector 1)
   Maximum residual norm  :     0.000000010367

      *** CONVERGENCE OF RESIDUAL NORM REACHED ***

Storing the converged CI vectors               ... benzene-opt-vex.cis1

                 *** DAVIDSON DONE ***

Total time for solving the CIS problem:     1.641sec

------------------------------------
TD-DFT/TDA EXCITED STATES (SINGLETS)
------------------------------------

the weight of the individual excitations are printed if larger than 1.0e-02

STATE  1:  E=   0.201896 au      5.494 eV    44311.0 cm**-1 <S**2> =   0.000000 Mult 1
    19a ->  21a  :     0.421710 (c=  0.64939223)
    19a ->  22a  :     0.077094 (c= -0.27765745)
    20a ->  21a  :     0.077074 (c= -0.27762136)
    20a ->  22a  :     0.421902 (c= -0.64953993)

STATE  2:  E=   0.237741 au      6.469 eV    52178.2 cm**-1 <S**2> =   0.000000 Mult 1
    19a ->  21a  :     0.074975 (c= -0.27381653)
    19a ->  22a  :     0.409641 (c= -0.64003196)
    20a ->  21a  :     0.410127 (c= -0.64041179)
    20a ->  22a  :     0.074835 (c=  0.27356025)

STATE  3:  E=   0.275059 au      7.485 eV    60368.4 cm**-1 <S**2> =   0.000000 Mult 1
    19a ->  23a  :     0.611219 (c=  0.78180488)
    20a ->  23a  :     0.383219 (c=  0.61904680)

STATE  4:  E=   0.275068 au      7.485 eV    60370.5 cm**-1 <S**2> =   0.000000 Mult 1
    19a ->  23a  :     0.383229 (c=  0.61905458)
    20a ->  23a  :     0.611226 (c= -0.78180949)

STATE  5:  E=   0.283516 au      7.715 eV    62224.6 cm**-1 <S**2> =   0.000000 Mult 1
    17a ->  21a  :     0.333885 (c=  0.57782740)
    17a ->  22a  :     0.163750 (c=  0.40466068)
    18a ->  21a  :     0.166322 (c= -0.40782577)
    18a ->  22a  :     0.330168 (c=  0.57460286)

Storing amplitudes in GBW file ... 
... GBW file created

-----------------------------
TD-DFT/TDA-EXCITATION SPECTRA
-----------------------------

Center of mass = (  0.0000, -0.0000, -0.0000)
Generating CIS transition densities           ... done

----------------------------------------------------------------------------------------------------
                     ABSORPTION SPECTRUM VIA TRANSITION ELECTRIC DIPOLE MOMENTS    
----------------------------------------------------------------------------------------------------
     Transition      Energy     Energy  Wavelength fosc(D2)      D2        DX        DY        DZ   
                      (eV)      (cm-1)    (nm)                 (au**2)    (au)      (au)      (au)  
----------------------------------------------------------------------------------------------------
  0-1A  ->  1-1A    5.493869   44311.0   225.7   0.000000021   0.00000  -0.00036   0.00015   0.00003
  0-1A  ->  2-1A    6.469270   52178.2   191.7   0.000000103   0.00000  -0.00061  -0.00053   0.00006
  0-1A  ->  3-1A    7.484729   60368.4   165.6   0.000000000   0.00000  -0.00000   0.00000   0.00000
  0-1A  ->  4-1A    7.484990   60370.5   165.6   0.000000000   0.00000   0.00000   0.00000   0.00000
  0-1A  ->  5-1A    7.714862   62224.6   160.7   0.000000072   0.00000  -0.00060   0.00011   0.00010

----------------------------------------------------------------------------------------------------
                     ABSORPTION SPECTRUM VIA TRANSITION VELOCITY DIPOLE MOMENTS    
----------------------------------------------------------------------------------------------------
     Transition      Energy     Energy  Wavelength fosc(P2)      P2        PX        PY        PZ   
                      (eV)      (cm-1)    (nm)                 (au**2)    (au)      (au)      (au)  
----------------------------------------------------------------------------------------------------
  0-1A  ->  1-1A    5.493869   44311.0   225.7   0.000000080   0.00000   0.00013  -0.00008  -0.00001
  0-1A  ->  2-1A    6.469270   52178.2   191.7   0.000000021   0.00000   0.00008   0.00001  -0.00001
  0-1A  ->  3-1A    7.484729   60368.4   165.6   0.000000000   0.00000  -0.00000  -0.00000  -0.00000
  0-1A  ->  4-1A    7.484990   60370.5   165.6   0.000000000   0.00000  -0.00000  -0.00000  -0.00000
  0-1A  ->  5-1A    7.714862   62224.6   160.7   0.000000010   0.00000   0.00004  -0.00000  -0.00005

------------------------------------------------------------------------------------------
                     CD SPECTRUM VIA TRANSITION ELECTRIC DIPOLE MOMENTS    
------------------------------------------------------------------------------------------
     Transition      Energy     Energy  Wavelength    R        MX        MY        MZ   
                      (eV)      (cm-1)    (nm)   (1e40*cgs)   (au)      (au)      (au)  
------------------------------------------------------------------------------------------
  0-1A  ->  1-1A    5.493869   44311.0   225.7   -0.00000  -0.00000   0.00000  -0.00000
  0-1A  ->  2-1A    6.469270   52178.2   191.7    0.00000   0.00000   0.00000   0.00000
  0-1A  ->  3-1A    7.484729   60368.4   165.6   -0.00010  -0.01997   0.17573  -0.00080
  0-1A  ->  4-1A    7.484990   60370.5   165.6    0.00015  -0.17522  -0.02015   0.00356
  0-1A  ->  5-1A    7.714862   62224.6   160.7   -0.00000   0.00000   0.00000   0.00000

------------------------------------------------------------------------------------------
                     CD SPECTRUM VIA TRANSITION VELOCITY DIPOLE MOMENTS    
------------------------------------------------------------------------------------------
     Transition      Energy     Energy  Wavelength    R        MX        MY        MZ   
                      (eV)      (cm-1)    (nm)   (1e40*cgs)   (au)      (au)      (au)  
------------------------------------------------------------------------------------------
  0-1A  ->  1-1A    5.493869   44311.0   225.7   -0.00000  -0.00000   0.00000  -0.00000
  0-1A  ->  2-1A    6.469270   52178.2   191.7    0.00000   0.00000   0.00000   0.00000
  0-1A  ->  3-1A    7.484729   60368.4   165.6    0.00001  -0.01997   0.17573  -0.00080
  0-1A  ->  4-1A    7.484990   60370.5   165.6    0.00009  -0.17522  -0.02015   0.00356
  0-1A  ->  5-1A    7.714862   62224.6   160.7   -0.00000   0.00000   0.00000   0.00000

Total run time:        1.768 sec

           *** ORCA-CIS/TD-DFT FINISHED WITHOUT ERROR ***
-----------------------
CIS/TD-DFT TOTAL ENERGY
-----------------------

    E(SCF)  =   -231.930784926 Eh
    DE(CIS) =      0.201895977 Eh (Root  1)
    ----------------------------- ---------
    E(tot)  =   -231.728888949 Eh


Maximum memory used throughout the entire CIS-calculation: 19.7 MB
=> NOW LEAVING ORCA_CIS

-------------------------   --------------------
FINAL SINGLE POINT ENERGY      -231.728888949460
-------------------------   --------------------



           ************************************************************
           *        Program running with 4 parallel MPI-processes     *
           *              working on a common directory               *
           ************************************************************

------------------------------------------------------------------------------
                              ORCA PROPERTY CALCULATIONS
------------------------------------------------------------------------------

GBWName                                 ... benzene-opt-vex.gbw
Number of atoms                         ...     12
Number of basis functions               ...    114
Max core memory                         ...   2000 MB

Electric properties:
Dipole moment                           ... YES
Quadrupole moment                       ...  NO
Static polarizability (Dipole/Dipole)   ...  NO
Static polarizability (Dipole/Quad.)    ...  NO
Static polarizability (Quad./Quad.)     ...  NO
Static polarizability (Velocity)        ...  NO
Static hyperpolarizability              ...  NO

Atomic electric properties:
Dipole moment                           ...  NO
Quadrupole moment                       ...  NO
Static polarizability                   ...  NO

Choice of electric origin               ... Center of mass
Position of electric origin             ...     0.000000    -0.000001    -0.000000

General magnetic properties:
Magnetizability                         ...  NO

EPR properties:
g-Tensor (aka g-matrix)                 ...  NO
Zero-Field splitting spin-orbit         ...  NO
Zero-field splitting spin-spin          ...  NO
Hyperfine couplings                     ...  NO (   0 nuclei)
Quadrupole couplings                    ...  NO (   0 nuclei)
Contact density                         ...  NO (   0 nuclei)

NMR properties:
Chemical shifts                         ...  NO (   0 nuclei)
Spin-rotation constants                 ...  NO (   0 nuclei)
Spin-spin couplings                     ...  NO (   0 nuclei,    0 pairs)

Choice of magnetic origin               ... GIAO
Position of magnetic origin             ...     0.000000     0.000000     0.000000

Properties with geometric perturbations:
SCF Hessian                             ...  NO
IR spectrum                             ...  NO
VCD spectrum                            ...  NO
X-ray spectroscopy properties:
SCF XES/XAS/RIXS spectra                ...  NO

SCF SOC stabilization energy            ...  NO
Diagonal Born-Oppenheimer correction    ...  NO

-------------
DIPOLE MOMENT
-------------

Method             : SCF
Type of density    : Electron Density
Multiplicity       :   1
Irrep              :   0
Energy             :  -231.9307849261148817 Eh
Basis              : AO
                                X                 Y                 Z
Electronic contribution:     -0.000001808      -0.000004116      -0.000001984
Nuclear contribution   :      0.000002597       0.000004328       0.000002597
                        -----------------------------------------
Total Dipole Moment    :      0.000000789       0.000000212       0.000000612
                        -----------------------------------------
Magnitude (a.u.)       :      0.000001021
Magnitude (Debye)      :      0.000002594



--------------------
Rotational spectrum 
--------------------
 
Rotational constants in cm-1:             0.188735             0.188725             0.094365 
Rotational constants in MHz :          5658.146804          5657.845656          2828.998113 

Dipole components along the rotational axes: 
x,y,z [a.u.] :    -0.000000     0.000001     0.000001 
x,y,z [Debye]:    -0.000001     0.000002     0.000002 

 

Dipole moment calculation done in   0.0 sec 

Maximum memory used throughout the entire PROP-calculation: 5.8 MB

--------------------------------
SUGGESTED CITATIONS FOR THIS RUN
--------------------------------

Below you find a list of papers that are relevant to this ORCA run
We neither can nor want to force you to cite these papers, but we appreciate if you do
You receive ORCA, which is the product of decades of hard work by many enthusiastic individuals, for free
The only thing we kindly ask in return is that you cite our papers,
We deeply appreciate it, if you show your appreciation for ORCA by not just citing the generic ORCA reference.

Please note that relegating all ORCA citations to the supporting information does *not* help us.
SI sections are not indexed - citations you put there will not count into any citation statistics
But we need these citations in order to attract the funding resources that allow us to do what we are doing

Therefore, if you are a happy ORCA user, please consider citing a few of the papers listed below in the main body of your paper

In addition to the list printed below, the program has created the file benzene-opt-vex.bibtex that contains the list in bibtex format
You can import this file easily into all common literature databanks and citation aid programs

It goes without saying that in many instances, there are alternative algorithms to achieve similar
results as the ones you have gotten from ORCA. It is, of course, also the case that in some instances
ORCA just re-implements algorithms worked out by others. We are fully aware of that and we are also
fully appreciative of our colleagues work. Hence this citation list should not be read as indicating
that the listed papers, which are focused on our own work, are the only ones worth citing. It simply
meant to make it easier for users to cite ORCA specific papers. It is not a substitute for doing your
own literature research and citing the relevant literature in a scientifically appropriate manner.

List of essential papers. We consider these as the minimum necessary citations

  1. Neese, F.
     Software update: the ORCA program system, version 6.0
     WIRES Comput. Molec. Sci. 2025 15(1), e70019
     doi.org/10.1002/wcms.70019

List of papers to cite with high priority. The work reported in these papers was absolutely
necessary for this run to complete.
Our perspective: the developers of density functionals and basis sets usually get cited in chemistry papers
Good! But without the algorithms to do something with them, the functionals or basis sets would not do anything.
Hence, in our opinion, the algorithm design and method developments papers are equally worthy of getting cited

  1. Neese, F.; Olbrich, G.
     Efficient use of the resolution of the identity approximation in time-dependent density functional calculations with hybrid density functionals
     Chem. Phys. Lett. 2002 362 , 170-178
     doi.org/10.1016/s0009-2614(02)01053-9
  2. Neese, F.
     An improvement of the resolution of the identity approximation for the formation of the Coulomb matrix
     J. Comp. Chem. 2003 24(14), 1740-1747
     doi.org/10.1002/jcc.10318
  3. Neese, F.; Wennmohs, F.; Hansen, A.; Becker, U.
     Efficient, approximate and parallel Hartree-Fock and hybrid DFT calculations. A 'chain-of-spheres' algorithm for the Hartree-Fock exchange
     Chem. Phys. 2009 356(1-3), 98-109
     doi.org/10.1016/j.chemphys.2008.10.036
  4. Helmich-Paris, B.; de Souza, B.; Neese, F.; Izsák, R.
     An improved chain of spheres for exchange algorithm
     J. Chem. Phys. 2021 155(10), 104109
     doi.org/10.1063/5.0058766
  5. Neese, F.
     The SHARK Integral Generation and Digestion System
     J. Comp. Chem. 2022 44(3), 381
     doi.org/10.1002/jcc.26942

List of suggested additional citations. These are papers that are important in the 'surrounding' of 
of this run, or papers that preceded the highly important papers. If you like your results we are grateful for a citation.

  1. Izsak, R.; Neese, F.
     An overlap fitted chain of spheres exchange method
     J. Chem. Phys. 2011 135 , 144105
     doi.org/10.1063/1.3646921
  2. Izsak, R.; Hansen, A.; Neese, F.
     The resolution of identity and chain of spheres approximations for the LPNO-CCSD singles Fock term
     Molec. Phys. 2012 110 , 2413-2417
     doi.org/10.1080/00268976.2012.687466
  3. Neese, F.
     The ORCA program system
     WIRES Comput. Molec. Sci. 2012 2(1), 73-78
     doi.org/10.1002/wcms.81
  4. Izsak, R.; Neese, F.; Klopper, W.
     Robust fitting techniques in the chain of spheres approximation to the Fock exchange: The role of the complementary space
     J. Chem. Phys. 2013 139 , 
     doi.org/10.1063/1.4819264
  5. Neese, F.
     Software update: the ORCA program system, version 4.0
     WIRES Comput. Molec. Sci. 2018 8(1), 1-6
     doi.org/10.1002/wcms.1327
  6. Neese, F.; Wennmohs, F.; Becker, U.; Riplinger, C.
     The ORCA quantum chemistry program package
     J. Chem. Phys. 2020 152(22), 224108
     doi.org/10.1063/5.0004608
  7. Neese, F.
     Software update: The ORCA program system—Version 5.0
     WIRES Comput. Molec. Sci. 2022 12(1), e1606
     doi.org/10.1002/wcms.1606

List of optional additional citations

  1. Neese, F.
     Approximate second-order SCF convergence for spin unrestricted wavefunctions
     Chem. Phys. Lett. 2000 325(1-3), 93-98
     doi.org/10.1016/s0009-2614(00)00662-x

Timings for individual modules:

Sum of individual times          ...        8.617 sec (=   0.144 min)
Startup calculation              ...        1.148 sec (=   0.019 min)  13.3 %
SCF iterations                   ...        4.486 sec (=   0.075 min)  52.1 %
Property integrals               ...        0.415 sec (=   0.007 min)   4.8 %
Property calculations            ...        0.416 sec (=   0.007 min)   4.8 %
CIS module                       ...        2.153 sec (=   0.036 min)  25.0 %
                             ****ORCA TERMINATED NORMALLY****
TOTAL RUN TIME: 0 days 0 hours 0 minutes 9 seconds 125 msec
