
                                 *****************
                                 * O   R   C   A *
                                 *****************

                                            #,                                       
                                            ###                                      
                                            ####                                     
                                            #####                                    
                                            ######                                   
                                           ########,                                 
                                     ,,################,,,,,                         
                               ,,#################################,,                 
                          ,,##########################################,,             
                       ,#########################################, ''#####,          
                    ,#############################################,,   '####,        
                  ,##################################################,,,,####,       
                ,###########''''           ''''###############################       
              ,#####''   ,,,,##########,,,,          '''####'''          '####       
            ,##' ,,,,###########################,,,                        '##       
           ' ,,###''''                  '''############,,,                           
         ,,##''                                '''############,,,,        ,,,,,,###''
      ,#''                                            '''#######################'''  
     '                                                          ''''####''''         
             ,#######,   #######,   ,#######,      ##                                
            ,#'     '#,  ##    ##  ,#'     '#,    #''#        ######   ,####,        
            ##       ##  ##   ,#'  ##            #'  '#       #        #'  '#        
            ##       ##  #######   ##           ,######,      #####,   #    #        
            '#,     ,#'  ##    ##  '#,     ,#' ,#      #,         ##   #,  ,#        
             '#######'   ##     ##  '#######'  #'      '#     #####' # '####'        



                  #######################################################
                  #                        -***-                        #
                  #          Department of theory and spectroscopy      #
                  #    Directorship and core code : Frank Neese         #
                  #        Max Planck Institute fuer Kohlenforschung    #
                  #                Kaiser Wilhelm Platz 1               #
                  #                 D-45470 Muelheim/Ruhr               #
                  #                      Germany                        #
                  #                                                     #
                  #                  All rights reserved                #
                  #                        -***-                        #
                  #######################################################


                         Program Version 5.0.4 -  RELEASE  -


 With contributions from (in alphabetic order):
   Daniel Aravena         : Magnetic Suceptibility
   Michael Atanasov       : Ab Initio Ligand Field Theory (pilot matlab implementation)
   Alexander A. Auer      : GIAO ZORA, VPT2 properties, NMR spectrum
   Ute Becker             : Parallelization
   Giovanni Bistoni       : ED, misc. LED, open-shell LED, HFLD
   Martin Brehm           : Molecular dynamics
   Dmytro Bykov           : SCF Hessian
   Vijay G. Chilkuri      : MRCI spin determinant printing, contributions to CSF-ICE
   Dipayan Datta          : RHF DLPNO-CCSD density
   Achintya Kumar Dutta   : EOM-CC, STEOM-CC
   Dmitry Ganyushin       : Spin-Orbit,Spin-Spin,Magnetic field MRCI
   Miquel Garcia          : C-PCM and meta-GGA Hessian, CC/C-PCM, Gaussian charge scheme
   Yang Guo               : DLPNO-NEVPT2, F12-NEVPT2, CIM, IAO-localization
   Andreas Hansen         : Spin unrestricted coupled pair/coupled cluster methods
   Benjamin Helmich-Paris : MC-RPA, TRAH-SCF, COSX integrals
   Lee Huntington         : MR-EOM, pCC
   Robert Izsak           : Overlap fitted RIJCOSX, COSX-SCS-MP3, EOM
   Marcus Kettner         : VPT2
   Christian Kollmar      : KDIIS, OOCD, Brueckner-CCSD(T), CCSD density, CASPT2, CASPT2-K
   Simone Kossmann        : Meta GGA functionals, TD-DFT gradient, OOMP2, MP2 Hessian
   Martin Krupicka        : Initial AUTO-CI
   Lucas Lang             : DCDCAS
   Marvin Lechner         : AUTO-CI (C++ implementation), FIC-MRCC
   Dagmar Lenk            : GEPOL surface, SMD
   Dimitrios Liakos       : Extrapolation schemes; Compound Job, initial MDCI parallelization
   Dimitrios Manganas     : Further ROCIS development; embedding schemes
   Dimitrios Pantazis     : SARC Basis sets
   Anastasios Papadopoulos: AUTO-CI, single reference methods and gradients
   Taras Petrenko         : DFT Hessian,TD-DFT gradient, ASA, ECA, R-Raman, ABS, FL, XAS/XES, NRVS
   Peter Pinski           : DLPNO-MP2, DLPNO-MP2 Gradient
   Christoph Reimann      : Effective Core Potentials
   Marius Retegan         : Local ZFS, SOC
   Christoph Riplinger    : Optimizer, TS searches, QM/MM, DLPNO-CCSD(T), (RO)-DLPNO pert. Triples
   Tobias Risthaus        : Range-separated hybrids, TD-DFT gradient, RPA, STAB
   Michael Roemelt        : Original ROCIS implementation
   Masaaki Saitow         : Open-shell DLPNO-CCSD energy and density
   Barbara Sandhoefer     : DKH picture change effects
   Avijit Sen             : IP-ROCIS
   Kantharuban Sivalingam : CASSCF convergence, NEVPT2, FIC-MRCI
   Bernardo de Souza      : ESD, SOC TD-DFT
   Georgi Stoychev        : AutoAux, RI-MP2 NMR, DLPNO-MP2 response
   Willem Van den Heuvel  : Paramagnetic NMR
   Boris Wezisla          : Elementary symmetry handling
   Frank Wennmohs         : Technical directorship


 We gratefully acknowledge several colleagues who have allowed us to
 interface, adapt or use parts of their codes:
   Stefan Grimme, W. Hujo, H. Kruse, P. Pracht,  : VdW corrections, initial TS optimization,
                  C. Bannwarth, S. Ehlert          DFT functionals, gCP, sTDA/sTD-DF
   Ed Valeev, F. Pavosevic, A. Kumar             : LibInt (2-el integral package), F12 methods
   Garnet Chan, S. Sharma, J. Yang, R. Olivares  : DMRG
   Ulf Ekstrom                                   : XCFun DFT Library
   Mihaly Kallay                                 : mrcc  (arbitrary order and MRCC methods)
   Jiri Pittner, Ondrej Demel                    : Mk-CCSD
   Frank Weinhold                                : gennbo (NPA and NBO analysis)
   Christopher J. Cramer and Donald G. Truhlar   : smd solvation model
   Lars Goerigk                                  : TD-DFT with DH, B97 family of functionals
   V. Asgeirsson, H. Jonsson                     : NEB implementation
   FAccTs GmbH                                   : IRC, NEB, NEB-TS, DLPNO-Multilevel, CI-OPT
                                                   MM, QMMM, 2- and 3-layer-ONIOM, Crystal-QMMM,
                                                   LR-CPCM, SF, NACMEs, symmetry and pop. for TD-DFT,
                                                   nearIR, NL-DFT gradient (VV10), updates on ESD,
                                                   ML-optimized integration grids
   S Lehtola, MJT Oliveira, MAL Marques          : LibXC Library
   Liviu Ungur et al                             : ANISO software


 Your calculation uses the libint2 library for the computation of 2-el integrals
 For citations please refer to: http://libint.valeyev.net

 Your ORCA version has been built with support for libXC version: 5.1.0
 For citations please refer to: https://tddft.org/programs/libxc/

 This ORCA versions uses:
   CBLAS   interface :  Fast vector & matrix operations
   LAPACKE interface :  Fast linear algebra routines
   SCALAPACK package :  Parallel linear algebra routines
   Shared memory     :  Shared parallel matrices
   BLAS/LAPACK       :  OpenBLAS 0.3.15  USE64BITINT DYNAMIC_ARCH NO_AFFINITY Barcelona SINGLE_THREADED
        Core in use  :  Barcelona
   Copyright (c) 2011-2014, The OpenBLAS Project


================================================================================

----- Orbital basis set information -----
Your calculation utilizes the basis: def2-SVP
   F. Weigend and R. Ahlrichs, Phys. Chem. Chem. Phys. 7, 3297 (2005).

----- AuxJ basis set information -----
Your calculation utilizes the auxiliary basis: def2/J
   F. Weigend, Phys. Chem. Chem. Phys. 8, 1057 (2006).

================================================================================
                                        WARNINGS
                       Please study these warnings very carefully!
================================================================================


INFO   : the flag for use of the SHARK integral package has been found!

================================================================================
                                       INPUT FILE
================================================================================
NAME = benzene-opt-ene_5.inp
|  1> %pal nprocs 4 end
|  2> %maxcore 2000
|  3> 
|  4> ! B3LYP def2-SVP SP
|  5> 
|  6> %output
|  7>   Print[P_Basis] 2
|  8>   Print[P_Mos] 1
|  9> end
| 10> 
| 11> * xyz 0 1
| 12>   C        0.805933    -1.143600    -0.008261
| 13>   C        1.393065     0.126183    -0.028226
| 14>   C        0.587147     1.269771    -0.019965
| 15>   C       -0.805933     1.143599     0.008262
| 16>   C       -1.393065    -0.126184     0.028225
| 17>   C       -0.587147    -1.269772     0.019964
| 18>   H        1.435961    -2.037509    -0.014772
| 19>   H        2.482025     0.224848    -0.050244
| 20>   H        1.046066     2.262320    -0.035512
| 21>   H       -1.435958     2.037511     0.014773
| 22>   H       -2.482026    -0.224847     0.050244
| 23>   H       -1.046065    -2.262321     0.035513
| 24> *
| 25> 
| 26>                          ****END OF INPUT****
================================================================================

                       ****************************
                       * Single Point Calculation *
                       ****************************

---------------------------------
CARTESIAN COORDINATES (ANGSTROEM)
---------------------------------
  C      0.805933   -1.143600   -0.008261
  C      1.393065    0.126183   -0.028226
  C      0.587147    1.269771   -0.019965
  C     -0.805933    1.143599    0.008262
  C     -1.393065   -0.126184    0.028225
  C     -0.587147   -1.269772    0.019964
  H      1.435961   -2.037509   -0.014772
  H      2.482025    0.224848   -0.050244
  H      1.046066    2.262320   -0.035512
  H     -1.435958    2.037511    0.014773
  H     -2.482026   -0.224847    0.050244
  H     -1.046065   -2.262321    0.035513

----------------------------
CARTESIAN COORDINATES (A.U.)
----------------------------
  NO LB      ZA    FRAG     MASS         X           Y           Z
   0 C     6.0000    0    12.011    1.522993   -2.161091   -0.015611
   1 C     6.0000    0    12.011    2.632511    0.238451   -0.053339
   2 C     6.0000    0    12.011    1.109547    2.399519   -0.037728
   3 C     6.0000    0    12.011   -1.522993    2.161089    0.015613
   4 C     6.0000    0    12.011   -2.632511   -0.238453    0.053338
   5 C     6.0000    0    12.011   -1.109547   -2.399521    0.037726
   6 H     1.0000    0     1.008    2.713573   -3.850334   -0.027915
   7 H     1.0000    0     1.008    4.690348    0.424901   -0.094947
   8 H     1.0000    0     1.008    1.976778    4.275165   -0.067108
   9 H     1.0000    0     1.008   -2.713567    3.850338    0.027917
  10 H     1.0000    0     1.008   -4.690349   -0.424899    0.094947
  11 H     1.0000    0     1.008   -1.976776   -4.275167    0.067110

--------------------------------
INTERNAL COORDINATES (ANGSTROEM)
--------------------------------
 C      0   0   0     0.000000000000     0.00000000     0.00000000
 C      1   0   0     1.399096656324     0.00000000     0.00000000
 C      2   1   0     1.399058819560   120.00183076     0.00000000
 C      3   2   1     1.399066840259   119.99879147     0.00000000
 C      4   3   2     1.399096627786   119.99937653     0.00000000
 C      5   4   3     1.399058819560   120.00183200     0.00000000
 H      1   2   3     1.093641154212   119.99896310   179.99683510
 H      2   1   3     1.093642288936   120.00131259   179.99717922
 H      3   2   1     1.093618706484   120.00299060   179.99645890
 H      4   3   2     1.093641878080   120.00144008   179.99683026
 H      5   4   3     1.093643124356   120.00120254   180.00278728
 H      6   5   4     1.093618315285   120.00303657   180.00332439

---------------------------
INTERNAL COORDINATES (A.U.)
---------------------------
 C      0   0   0     0.000000000000     0.00000000     0.00000000
 C      1   0   0     2.643909515338     0.00000000     0.00000000
 C      2   1   0     2.643838014216   120.00183076     0.00000000
 C      3   2   1     2.643853171141   119.99879147     0.00000000
 C      4   3   2     2.643909461408   119.99937653     0.00000000
 C      5   4   3     2.643838014216   120.00183200     0.00000000
 H      1   2   3     2.066682270246   119.99896310   179.99683510
 H      2   1   3     2.066684414564   120.00131259   179.99717922
 H      3   2   1     2.066639850187   120.00299060   179.99645890
 H      4   3   2     2.066683638158   120.00144008   179.99683026
 H      5   4   3     2.066685993279   120.00120254   180.00278728
 H      6   5   4     2.066639110928   120.00303657   180.00332439

---------------------
BASIS SET INFORMATION
---------------------
There are 2 groups of distinct atoms

 Group   1 Type C   : 7s4p1d contracted to 3s2p1d pattern {511/31/1}
 Group   2 Type H   : 4s1p contracted to 2s1p pattern {31/1}

Atom   0C    basis set group =>   1
Atom   1C    basis set group =>   1
Atom   2C    basis set group =>   1
Atom   3C    basis set group =>   1
Atom   4C    basis set group =>   1
Atom   5C    basis set group =>   1
Atom   6H    basis set group =>   2
Atom   7H    basis set group =>   2
Atom   8H    basis set group =>   2
Atom   9H    basis set group =>   2
Atom  10H    basis set group =>   2
Atom  11H    basis set group =>   2

-------------------------
BASIS SET IN INPUT FORMAT
-------------------------

 # Basis set for element : H 
 NewGTO H 
 S 3 
   1      13.0107010000      0.0334854848
   2       1.9622572000      0.2347218709
   3       0.4445379600      0.8137702853
 S 1 
   1       0.1219496200      1.0000000000
 P 1 
   1       0.8000000000      1.0000000000
  end;

 # Basis set for element : C 
 NewGTO C 
 S 5 
   1    1238.4016938000      0.0055173650
   2     186.2900499200      0.0410888285
   3      42.2511763460      0.1822538213
   4      11.6765579320      0.4682845944
   5       3.5930506482      0.4457581734
 S 1 
   1       0.4024514736      1.0000000000
 S 1 
   1       0.1309018267      1.0000000000
 P 3 
   1       9.4680970621      0.0568883320
   2       2.0103545142      0.3129405934
   3       0.5477100471      0.7606501651
 P 1 
   1       0.1526861379      1.0000000000
 D 1 
   1       0.8000000000      1.0000000000
  end;

---------------------------------
AUXILIARY/J BASIS SET INFORMATION
---------------------------------
There are 2 groups of distinct atoms

 Group   1 Type C   : 12s5p4d2f1g contracted to 6s4p3d1f1g pattern {711111/2111/211/2/1}
 Group   2 Type H   : 5s2p1d contracted to 3s1p1d pattern {311/2/1}

Atom   0C    basis set group =>   1
Atom   1C    basis set group =>   1
Atom   2C    basis set group =>   1
Atom   3C    basis set group =>   1
Atom   4C    basis set group =>   1
Atom   5C    basis set group =>   1
Atom   6H    basis set group =>   2
Atom   7H    basis set group =>   2
Atom   8H    basis set group =>   2
Atom   9H    basis set group =>   2
Atom  10H    basis set group =>   2
Atom  11H    basis set group =>   2

-------------------------------------
AUXILIARY/J BASIS SET IN INPUT FORMAT
-------------------------------------

 # Auxiliary/J basis set for element : H 
 NewAuxJGTO H 
 S 3 
   1      15.6752927000      0.1007184237
   2       3.6063578000      0.3404257499
   3       1.2080016000      0.6491996172
 S 1 
   1       0.4726794000      1.0000000000
 S 1 
   1       0.2018100000      1.0000000000
 P 2 
   1       2.0281365000      0.5596620919
   2       0.5358730000      0.5596620919
 D 1 
   1       2.2165124000      1.0000000000
  end;

 # Auxiliary/J basis set for element : C 
 NewAuxJGTO C 
 S 7 
   1    1861.0916331000      0.0134602335
   2     642.9939764000      0.0299160374
   3     235.1105725000      0.1008649584
   4      90.7028894000      0.2370970548
   5      36.7794552000      0.3924037254
   6      15.6046273000      0.3195862154
   7       6.8907294000      0.0530104441
 S 1 
   1       3.1478850000     -1.0000000000
 S 1 
   1       1.4777287000      1.0000000000
 S 1 
   1       0.7076466000      1.0000000000
 S 1 
   1       0.3430122000      1.0000000000
 S 1 
   1       0.1669453000      1.0000000000
 P 2 
   1      13.5472892000     -0.6769313712
   2       5.4669419000     -0.3779500978
 P 1 
   1       2.1751721000      1.0000000000
 P 1 
   1       0.8582194000      1.0000000000
 P 1 
   1       0.3376720000      1.0000000000
 D 2 
   1       5.9287253000     -0.3533329857
   2       1.9809209000     -0.7456525731
 D 1 
   1       0.8055417000     -1.0000000000
 D 1 
   1       0.3531244000     -1.0000000000
 F 2 
   1       1.6755626000      0.6311076882
   2       0.5997536000      0.4968166032
 G 1 
   1       1.0024600000     -1.0000000000
  end;



           ************************************************************
           *        Program running with 4 parallel MPI-processes     *
           *              working on a common directory               *
           ************************************************************
------------------------------------------------------------------------------
                           ORCA GTO INTEGRAL CALCULATION
                           -- RI-GTO INTEGRALS CHOSEN --
------------------------------------------------------------------------------
------------------------------------------------------------------------------
                   ___                                                        
                  /   \      - P O W E R E D   B Y -                         
                 /     \                                                     
                 |  |  |   _    _      __       _____    __    __             
                 |  |  |  | |  | |    /  \     |  _  \  |  |  /  |          
                  \  \/   | |  | |   /    \    | | | |  |  | /  /          
                 / \  \   | |__| |  /  /\  \   | |_| |  |  |/  /          
                |  |  |   |  __  | /  /__\  \  |    /   |      \           
                |  |  |   | |  | | |   __   |  |    \   |  |\   \          
                \     /   | |  | | |  |  |  |  | |\  \  |  | \   \       
                 \___/    |_|  |_| |__|  |__|  |_| \__\ |__|  \__/        
                                                                              
                      - O R C A' S   B I G   F R I E N D -                    
                                      &                                       
                       - I N T E G R A L  F E E D E R -                       
                                                                              
 v1 FN, 2020, v2 2021                                                         
------------------------------------------------------------------------------


Reading SHARK input file benzene-opt-ene_5.SHARKINP.tmp ... ok
----------------------
SHARK INTEGRAL PACKAGE
----------------------

Number of atoms                             ...     12
Number of basis functions                   ...    114
Number of shells                            ...     54
Maximum angular momentum                    ...      2
Integral batch strategy                     ... SHARK/LIBINT Hybrid
RI-J (if used) integral strategy            ... SPLIT-RIJ (Revised 2003 algorithm where possible)
Printlevel                                  ...      1
Contraction scheme used                     ... SEGMENTED contraction
Coulomb Range Separation                    ... NOT USED
Exchange Range Separation                   ... NOT USED
Finite Nucleus Model                        ... NOT USED
Auxiliary Coulomb fitting basis             ... AVAILABLE
   # of basis functions in Aux-J            ...    360
   # of shells in Aux-J                     ...    120
   Maximum angular momentum in Aux-J        ...      4
Auxiliary J/K fitting basis                 ... NOT available
Auxiliary Correlation fitting basis         ... NOT available
Auxiliary 'external' fitting basis          ... NOT available
Integral threshold                          ...     1.000000e-10
Primitive cut-off                           ...     1.000000e-11
Primitive pair pre-selection threshold      ...     1.000000e-11

Calculating pre-screening integrals         ... done (  0.0 sec) Dimension = 54
Organizing shell pair data                  ... done (  0.0 sec)
Shell pair information
Total number of shell pairs                 ...      1485
Shell pairs after pre-screening             ...      1455
Total number of primitive shell pairs       ...      5349
Primitive shell pairs kept                  ...      4101
          la=0 lb=0:    456 shell pairs
          la=1 lb=0:    522 shell pairs
          la=1 lb=1:    168 shell pairs
          la=2 lb=0:    180 shell pairs
          la=2 lb=1:    108 shell pairs
          la=2 lb=2:     21 shell pairs

Calculating one electron integrals          ... done (  0.0 sec)
Calculating RI/J V-Matrix + Cholesky decomp.... done (  0.0 sec)
Calculating Nuclear repulsion               ... done (  0.0 sec) ENN=    202.697870880646 Eh

SHARK setup successfully completed in   0.1 seconds

Maximum memory used throughout the entire GTOINT-calculation: 10.2 MB


           ************************************************************
           *        Program running with 4 parallel MPI-processes     *
           *              working on a common directory               *
           ************************************************************
-------------------------------------------------------------------------------
                                 ORCA SCF
-------------------------------------------------------------------------------

------------
SCF SETTINGS
------------
Hamiltonian:
 Density Functional     Method          .... DFT(GTOs)
 Exchange Functional    Exchange        .... B88
   X-Alpha parameter    XAlpha          ....  0.666667
   Becke's b parameter  XBeta           ....  0.004200
 Correlation Functional Correlation     .... LYP
 LDA part of GGA corr.  LDAOpt          .... VWN-5
 Gradients option       PostSCFGGA      .... off
 Hybrid DFT is turned on
   Fraction HF Exchange ScalHFX         ....  0.200000
   Scaling of DF-GGA-X  ScalDFX         ....  0.720000
   Scaling of DF-GGA-C  ScalDFC         ....  0.810000
   Scaling of DF-LDA-C  ScalLDAC        ....  1.000000
   Perturbative correction              ....  0.000000
   Density functional embedding theory  .... OFF
   NL short-range parameter             ....  4.800000
 RI-approximation to the Coulomb term is turned on
   Number of AuxJ basis functions       .... 360
   RIJ-COSX (HFX calculated with COS-X)).... on


General Settings:
 Integral files         IntName         .... benzene-opt-ene_5
 Hartree-Fock type      HFTyp           .... RHF
 Total Charge           Charge          ....    0
 Multiplicity           Mult            ....    1
 Number of Electrons    NEL             ....   42
 Basis Dimension        Dim             ....  114
 Nuclear Repulsion      ENuc            ....    202.6978708806 Eh

Convergence Acceleration:
 DIIS                   CNVDIIS         .... on
   Start iteration      DIISMaxIt       ....    12
   Startup error        DIISStart       ....  0.200000
   # of expansion vecs  DIISMaxEq       ....     5
   Bias factor          DIISBfac        ....   1.050
   Max. coefficient     DIISMaxC        ....  10.000
 Trust-Rad. Augm. Hess. CNVTRAH         .... auto
   Auto Start mean grad. ratio tolernc. ....  1.125000
   Auto Start start iteration           ....    20
   Auto Start num. interpolation iter.  ....    10
   Max. Number of Micro iterations      ....    16
   Max. Number of Macro iterations      .... Maxiter - #DIIS iter
   Number of Davidson start vectors     ....     2
   Converg. threshold I  (grad. norm)   ....   5.000e-05
   Converg. threshold II (energy diff.) ....   1.000e-06
   Grad. Scal. Fac. for Micro threshold ....   0.100
   Minimum threshold for Micro iter.    ....   0.010
   NR start threshold (gradient norm)   ....   0.001
   Initial trust radius                 ....   0.400
   Minimum AH scaling param. (alpha)    ....   1.000
   Maximum AH scaling param. (alpha)    .... 1000.000
   Orbital update algorithm             .... Taylor
   White noise on init. David. guess    .... on
   Maximum white noise                  ....   0.010
   Quad. conv. algorithm                .... NR
 SOSCF                  CNVSOSCF        .... on
   Start iteration      SOSCFMaxIt      ....   150
   Startup grad/error   SOSCFStart      ....  0.003300
 Level Shifting         CNVShift        .... on
   Level shift para.    LevelShift      ....    0.2500
   Turn off err/grad.   ShiftErr        ....    0.0010
 Zerner damping         CNVZerner       .... off
 Static damping         CNVDamp         .... on
   Fraction old density DampFac         ....    0.7000
   Max. Damping (<1)    DampMax         ....    0.9800
   Min. Damping (>=0)   DampMin         ....    0.0000
   Turn off err/grad.   DampErr         ....    0.1000
 Fernandez-Rico         CNVRico         .... off

SCF Procedure:
 Maximum # iterations   MaxIter         ....   125
 SCF integral mode      SCFMode         .... Direct
   Integral package                     .... SHARK and LIBINT hybrid scheme
 Reset frequency        DirectResetFreq ....    20
 Integral Threshold     Thresh          ....  1.000e-10 Eh
 Primitive CutOff       TCut            ....  1.000e-11 Eh

Convergence Tolerance:
 Convergence Check Mode ConvCheckMode   .... Total+1el-Energy
 Convergence forced     ConvForced      .... 0
 Energy Change          TolE            ....  1.000e-06 Eh
 1-El. energy change                    ....  1.000e-03 Eh
 Orbital Gradient       TolG            ....  5.000e-05
 Orbital Rotation angle TolX            ....  5.000e-05
 DIIS Error             TolErr          ....  1.000e-06


Diagonalization of the overlap matrix:
Smallest eigenvalue                        ... 3.243e-04
Time for diagonalization                   ...    0.002 sec
Threshold for overlap eigenvalues          ... 1.000e-08
Number of eigenvalues below threshold      ... 0
Time for construction of square roots      ...    0.001 sec
Total time needed                          ...    0.004 sec

Time for model grid setup =    0.041 sec

------------------------------
INITIAL GUESS: MODEL POTENTIAL
------------------------------
Loading Hartree-Fock densities                     ... done
Calculating cut-offs                               ... done
Initializing the effective Hamiltonian             ... done
Setting up the integral package (SHARK)            ... done
Starting the Coulomb interaction                   ... done (   0.0 sec)
Reading the grid                                   ... done
Mapping shells                                     ... done
Starting the XC term evaluation                    ... done (   0.0 sec)
  promolecular density results
     # of electrons  =     41.996695622
     EX              =    -32.591283486
     EC              =     -1.375923142
     EX+EC           =    -33.967206628
Transforming the Hamiltonian                       ... done (   0.0 sec)
Diagonalizing the Hamiltonian                      ... done (   0.0 sec)
Back transforming the eigenvectors                 ... done (   0.0 sec)
Now organizing SCF variables                       ... done
                      ------------------
                      INITIAL GUESS DONE (   0.1 sec)
                      ------------------
-------------------
DFT GRID GENERATION
-------------------

General Integration Accuracy     IntAcc      ... 4.388
Radial Grid Type                 RadialGrid  ... OptM3 with GC (2021)
Angular Grid (max. ang.)         AngularGrid ... 4 (Lebedev-302)
Angular grid pruning method      GridPruning ... 4 (adaptive)
Weight generation scheme         WeightScheme... Becke
Basis function cutoff            BFCut       ... 1.0000e-10
Integration weight cutoff        WCut        ... 1.0000e-14
Angular grids for H and He will be reduced by one unit
Partially contracted basis set               ... off
Rotationally invariant grid construction     ... off

Total number of grid points                  ...    55504
Total number of batches                      ...      870
Average number of points per batch           ...       63
Average number of grid points per atom       ...     4625
Time for grid setup =    0.212 sec

--------------------
COSX GRID GENERATION
--------------------

GRIDX 1
-------
General Integration Accuracy     IntAcc      ... 3.816
Radial Grid Type                 RadialGrid  ... OptM3 with GC (2021)
Angular Grid (max. ang.)         AngularGrid ... 1 (Lebedev-50)
Angular grid pruning method      GridPruning ... 4 (adaptive)
Weight generation scheme         WeightScheme... Becke
Basis function cutoff            BFCut       ... 1.0000e-10
Integration weight cutoff        WCut        ... 1.0000e-14
Angular grids for H and He will be reduced by one unit
Partially contracted basis set               ... on
Rotationally invariant grid construction     ... off

Total number of grid points                  ...     7122
Total number of batches                      ...      114
Average number of points per batch           ...       62
Average number of grid points per atom       ...      594
UseSFitting                                  ... on

GRIDX 2
-------
General Integration Accuracy     IntAcc      ... 4.020
Radial Grid Type                 RadialGrid  ... OptM3 with GC (2021)
Angular Grid (max. ang.)         AngularGrid ... 2 (Lebedev-110)
Angular grid pruning method      GridPruning ... 4 (adaptive)
Weight generation scheme         WeightScheme... Becke
Basis function cutoff            BFCut       ... 1.0000e-10
Integration weight cutoff        WCut        ... 1.0000e-14
Angular grids for H and He will be reduced by one unit
Partially contracted basis set               ... on
Rotationally invariant grid construction     ... off

Total number of grid points                  ...    15488
Total number of batches                      ...      248
Average number of points per batch           ...       62
Average number of grid points per atom       ...     1291
UseSFitting                                  ... on

GRIDX 3
-------
General Integration Accuracy     IntAcc      ... 4.338
Radial Grid Type                 RadialGrid  ... OptM3 with GC (2021)
Angular Grid (max. ang.)         AngularGrid ... 3 (Lebedev-194)
Angular grid pruning method      GridPruning ... 4 (adaptive)
Weight generation scheme         WeightScheme... Becke
Basis function cutoff            BFCut       ... 1.0000e-10
Integration weight cutoff        WCut        ... 1.0000e-14
Angular grids for H and He will be reduced by one unit
Partially contracted basis set               ... on
Rotationally invariant grid construction     ... off

Total number of grid points                  ...    34060
Total number of batches                      ...      540
Average number of points per batch           ...       63
Average number of grid points per atom       ...     2838
UseSFitting                                  ... on

Time for X-Grid setup             =    0.172 sec

--------------
SCF ITERATIONS
--------------
ITER       Energy         Delta-E        Max-DP      RMS-DP      [F,P]     Damp
               ***  Starting incremental Fock matrix formation  ***
  0   -231.7990843424   0.000000000000 0.04891024  0.00298713  0.1200412 0.7000
  1   -231.8576004118  -0.058516069400 0.03282539  0.00215447  0.0613739 0.7000
                               ***Turning on DIIS***
  2   -231.8836598435  -0.026059431712 0.05349699  0.00388636  0.0275283 0.0000
  3   -231.9204508756  -0.036791032081 0.01989627  0.00122806  0.0384756 0.0000
  4   -231.9301577698  -0.009706894283 0.00528237  0.00031255  0.0078109 0.0000
                      *** Initiating the SOSCF procedure ***
                           *** Shutting down DIIS ***
                      *** Re-Reading the Fockian *** 
                      *** Removing any level shift *** 
ITER      Energy       Delta-E        Grad      Rot      Max-DP    RMS-DP
  5   -231.93062238  -0.0004646068  0.000871  0.000871  0.001941  0.000120
               *** Restarting incremental Fock matrix formation ***
  6   -231.93069871  -0.0000763334  0.000378  0.000727  0.001307  0.000074
  7   -231.93069957  -0.0000008641  0.000264  0.000200  0.000314  0.000019
  8   -231.93070095  -0.0000013723  0.000031  0.000030  0.000062  0.000005
                 **** Energy Check signals convergence ****
              ***Rediagonalizing the Fockian in SOSCF/NRSCF***

               *****************************************************
               *                     SUCCESS                       *
               *           SCF CONVERGED AFTER   9 CYCLES          *
               *****************************************************

Old exchange energy                            =     -6.627997793 Eh
New exchange energy                            =     -6.628015778 Eh
Exchange energy change after final integration =     -0.000017985 Eh
Total energy after final integration           =   -231.930718956 Eh
Final COS-X integration done in                =     0.735 sec

----------------
TOTAL SCF ENERGY
----------------

Total Energy       :         -231.93071896 Eh           -6311.15572 eV

Components:
Nuclear Repulsion  :          202.69787088 Eh            5515.68948 eV
Electronic Energy  :         -434.62858984 Eh          -11826.84519 eV
One Electron Energy:         -712.34079876 Eh          -19383.77859 eV
Two Electron Energy:          277.71220892 Eh            7556.93339 eV
Max COSX asymmetry :            0.00000254 Eh               0.00007 eV

Virial components:
Potential Energy   :         -461.23632067 Eh          -12550.87836 eV
Kinetic Energy     :          229.30560172 Eh            6239.72264 eV
Virial Ratio       :            2.01144812


DFT components:
N(Alpha)           :       20.999998553948 electrons
N(Beta)            :       20.999998553948 electrons
N(Total)           :       41.999997107896 electrons
E(X)               :      -26.301388696692 Eh       
E(C)               :       -1.631828549000 Eh       
E(XC)              :      -27.933217245692 Eh       
DFET-embed. en.    :        0.000000000000 Eh       

---------------
SCF CONVERGENCE
---------------

  Last Energy change         ...   -2.4420e-08  Tolerance :   1.0000e-06
  Last MAX-Density change    ...    2.2204e-15  Tolerance :   1.0000e-05
  Last RMS-Density change    ...    6.1115e-17  Tolerance :   1.0000e-06
  Last Orbital Gradient      ...    1.2325e-05  Tolerance :   5.0000e-05
  Last Orbital Rotation      ...    8.2759e-06  Tolerance :   5.0000e-05

             **** THE GBW FILE WAS UPDATED (benzene-opt-ene_5.gbw) ****
             **** DENSITY benzene-opt-ene_5.scfp WAS UPDATED ****
             **** ENERGY FILE WAS UPDATED (benzene-opt-ene_5.en.tmp) ****
             **** THE GBW FILE WAS UPDATED (benzene-opt-ene_5.gbw) ****
             **** DENSITY benzene-opt-ene_5.scfp WAS UPDATED ****
----------------
ORBITAL ENERGIES
----------------

  NO   OCC          E(Eh)            E(eV) 
   0   2.0000     -10.188334      -277.2387 
   1   2.0000     -10.188190      -277.2348 
   2   2.0000     -10.188176      -277.2344 
   3   2.0000     -10.187798      -277.2241 
   4   2.0000     -10.187784      -277.2237 
   5   2.0000     -10.187678      -277.2208 
   6   2.0000      -0.841721       -22.9044 
   7   2.0000      -0.733769       -19.9669 
   8   2.0000      -0.733765       -19.9668 
   9   2.0000      -0.593354       -16.1460 
  10   2.0000      -0.593347       -16.1458 
  11   2.0000      -0.517893       -14.0926 
  12   2.0000      -0.453248       -12.3335 
  13   2.0000      -0.444964       -12.1081 
  14   2.0000      -0.418526       -11.3887 
  15   2.0000      -0.418513       -11.3883 
  16   2.0000      -0.364925        -9.9301 
  17   2.0000      -0.342967        -9.3326 
  18   2.0000      -0.342958        -9.3324 
  19   2.0000      -0.252651        -6.8750 
  20   2.0000      -0.252643        -6.8748 
  21   0.0000      -0.005858        -0.1594 
  22   0.0000      -0.005851        -0.1592 
  23   0.0000       0.060178         1.6375 
  24   0.0000       0.101523         2.7626 
  25   0.0000       0.101527         2.7627 
  26   0.0000       0.139223         3.7884 
  27   0.0000       0.139247         3.7891 
  28   0.0000       0.151209         4.1146 
  29   0.0000       0.159885         4.3507 
  30   0.0000       0.289484         7.8773 
  31   0.0000       0.289517         7.8782 
  32   0.0000       0.302502         8.2315 
  33   0.0000       0.302514         8.2318 
  34   0.0000       0.369283        10.0487 
  35   0.0000       0.411708        11.2031 
  36   0.0000       0.422310        11.4916 
  37   0.0000       0.422359        11.4930 
  38   0.0000       0.436508        11.8780 
  39   0.0000       0.464558        12.6413 
  40   0.0000       0.473742        12.8912 
  41   0.0000       0.506635        13.7862 
  42   0.0000       0.506666        13.7871 
  43   0.0000       0.541249        14.7281 
  44   0.0000       0.541303        14.7296 
  45   0.0000       0.541781        14.7426 
  46   0.0000       0.604299        16.4438 
  47   0.0000       0.604352        16.4453 
  48   0.0000       0.636794        17.3281 
  49   0.0000       0.636838        17.3292 
  50   0.0000       0.671357        18.2685 
  51   0.0000       0.671390        18.2695 
  52   0.0000       0.675504        18.3814 
  53   0.0000       0.726674        19.7738 
  54   0.0000       0.726682        19.7740 
  55   0.0000       0.737960        20.0809 
  56   0.0000       0.742289        20.1987 
  57   0.0000       0.775093        21.0914 
  58   0.0000       0.775137        21.0925 
  59   0.0000       0.835660        22.7395 
  60   0.0000       0.894231        24.3333 
  61   0.0000       1.026087        27.9213 
  62   0.0000       1.026103        27.9217 
  63   0.0000       1.158998        31.5379 
  64   0.0000       1.248049        33.9611 
  65   0.0000       1.248057        33.9614 
  66   0.0000       1.254921        34.1481 
  67   0.0000       1.268027        34.5048 
  68   0.0000       1.268080        34.5062 
  69   0.0000       1.309200        35.6251 
  70   0.0000       1.309217        35.6256 
  71   0.0000       1.516181        41.2574 
  72   0.0000       1.644181        44.7404 
  73   0.0000       1.646984        44.8167 
  74   0.0000       1.669746        45.4361 
  75   0.0000       1.742788        47.4237 
  76   0.0000       1.748547        47.5804 
  77   0.0000       1.748558        47.5807 
  78   0.0000       1.757507        47.8242 
  79   0.0000       1.757535        47.8250 
  80   0.0000       1.758388        47.8482 
  81   0.0000       1.758421        47.8491 
  82   0.0000       1.826249        49.6948 
  83   0.0000       1.826264        49.6952 
  84   0.0000       1.931726        52.5649 
  85   0.0000       1.982239        53.9395 
  86   0.0000       1.982587        53.9489 
  87   0.0000       1.982598        53.9492 
  88   0.0000       1.984467        54.0001 
  89   0.0000       1.984480        54.0005 
  90   0.0000       2.114728        57.5447 
  91   0.0000       2.134621        58.0860 
  92   0.0000       2.141353        58.2692 
  93   0.0000       2.141368        58.2696 
  94   0.0000       2.302839        62.6634 
  95   0.0000       2.302864        62.6641 
  96   0.0000       2.308194        62.8092 
  97   0.0000       2.308206        62.8095 
  98   0.0000       2.349866        63.9431 
  99   0.0000       2.349914        63.9444 
 100   0.0000       2.557677        69.5979 
 101   0.0000       2.599977        70.7490 
 102   0.0000       2.600006        70.7498 
 103   0.0000       2.646992        72.0283 
 104   0.0000       2.719139        73.9915 
 105   0.0000       2.719252        73.9946 
 106   0.0000       2.719281        73.9954 
 107   0.0000       2.861618        77.8686 
 108   0.0000       2.861648        77.8694 
 109   0.0000       2.889380        78.6240 
 110   0.0000       3.118465        84.8577 
 111   0.0000       3.118513        84.8591 
 112   0.0000       3.244099        88.2764 
 113   0.0000       3.655338        99.4668 
------------------
MOLECULAR ORBITALS
------------------
                      0         1         2         3         4         5   
                 -10.18833 -10.18819 -10.18818 -10.18780 -10.18778 -10.18768
                   2.00000   2.00000   2.00000   2.00000   2.00000   2.00000
                  --------  --------  --------  --------  --------  --------
  0C   1s         0.413347 -0.550118 -0.176685 -0.551418 -0.115802 -0.392868
  0C   2s         0.016475 -0.025502 -0.008231 -0.028570 -0.006058 -0.022219
  0C   3s        -0.006497  0.004202  0.001667  0.029554  0.006347  0.028542
  0C   1pz       -0.000006 -0.000008  0.000035  0.000008 -0.000045 -0.000005
  0C   1px        0.000603  0.000138 -0.001478 -0.000220  0.001888  0.000436
  0C   1py       -0.000895  0.000729 -0.000855 -0.000540  0.001234 -0.000591
  0C   2pz       -0.000001 -0.000028  0.000162  0.000018  0.000055  0.000012
  0C   2px       -0.000084  0.000054 -0.007014 -0.002366 -0.002625 -0.001269
  0C   2py        0.000193  0.004170 -0.003585  0.004296 -0.000571  0.001930
  0C   1dz2      -0.000240  0.000604  0.000209  0.001853  0.000402  0.001975
  0C   1dxz       0.000002  0.000019 -0.000011  0.000060  0.000033  0.000070
  0C   1dyz       0.000010 -0.000005  0.000012  0.000026 -0.000010  0.000026
  0C   1dx2y2    -0.000251 -0.000116  0.000968  0.000217 -0.001105 -0.000079
  0C   1dxy      -0.000744  0.000587 -0.000176 -0.000143  0.000370 -0.000196
  1C   1s         0.403972 -0.414844  0.391955  0.389349 -0.416195  0.403474
  1C   2s         0.015997 -0.019136  0.018194  0.020052 -0.021580  0.022711
  1C   3s        -0.006035  0.002554 -0.003170 -0.020499  0.022354 -0.028611
  1C   1pz       -0.000022  0.000014 -0.000001  0.000012  0.000003  0.000014
  1C   1px        0.001075 -0.000307  0.000479 -0.000036  0.000380 -0.000726
  1C   1py        0.000144 -0.001236 -0.001274 -0.001717 -0.001523 -0.000029
  1C   2pz        0.000006  0.000077 -0.000021 -0.000077  0.000066 -0.000049
  1C   2px       -0.000273 -0.002026  0.002962  0.003172 -0.003826  0.002352
  1C   2py       -0.000049 -0.005754 -0.005771  0.002180  0.001375  0.000383
  1C   1dz2      -0.000206  0.000416 -0.000435 -0.001280  0.001402 -0.001987
  1C   1dxz      -0.000023  0.000020 -0.000025 -0.000046  0.000044 -0.000063
  1C   1dyz       0.000000 -0.000010 -0.000019 -0.000033 -0.000000 -0.000023
  1C   1dx2y2     0.000775 -0.000518  0.000223 -0.000184 -0.000095 -0.000196
  1C   1dxy       0.000116  0.000607  0.000802  0.000863  0.000799 -0.000057
  2C   1s         0.393548  0.118288  0.551326  0.179453  0.548549 -0.413015
  2C   2s         0.015451  0.005412  0.025442  0.009207  0.028277 -0.023152
  2C   3s        -0.005500 -0.000444 -0.003439 -0.009325 -0.028918  0.028686
  2C   1pz       -0.000016 -0.000028 -0.000002  0.000034 -0.000007 -0.000010
  2C   1px        0.000479  0.001634 -0.000120 -0.002026  0.000523  0.000283
  2C   1py        0.000978 -0.000614  0.000659  0.000853 -0.000547  0.000659
  2C   2pz        0.000004 -0.000131 -0.000021 -0.000058 -0.000056  0.000037
  2C   2px       -0.000181  0.007552 -0.000210  0.002836  0.001261 -0.001107
  2C   2py       -0.000288 -0.002691  0.003815  0.000340  0.004624 -0.002171
  2C   1dz2      -0.000172 -0.000104 -0.000560 -0.000580 -0.001812  0.001997
  2C   1dxz       0.000001  0.000017 -0.000019 -0.000042 -0.000055  0.000069
  2C   1dyz      -0.000017  0.000004 -0.000018 -0.000015 -0.000017  0.000019
  2C   1dx2y2    -0.000516 -0.000836 -0.000175  0.000869 -0.000251 -0.000117
  2C   1dxy       0.000591 -0.000552  0.000549  0.000730 -0.000266  0.000155
  3C   1s         0.413349  0.549971  0.177109 -0.551544 -0.115210  0.392879
  3C   2s         0.016475  0.025496  0.008249 -0.028577 -0.006026  0.022220
  3C   3s        -0.006497 -0.004198 -0.001678  0.029561  0.006312 -0.028543
  3C   1pz        0.000006 -0.000008  0.000035 -0.000008  0.000045 -0.000005
  3C   1px       -0.000602  0.000138 -0.001478  0.000219 -0.001887  0.000439
  3C   1py        0.000896  0.000729 -0.000854  0.000540 -0.001235 -0.000589
  3C   2pz        0.000000 -0.000028  0.000162 -0.000018 -0.000055  0.000012
  3C   2px        0.000089  0.000054 -0.007014  0.002365  0.002623 -0.001272
  3C   2py       -0.000189  0.004169 -0.003584 -0.004297  0.000574  0.001928
  3C   1dz2      -0.000240 -0.000604 -0.000210  0.001854  0.000399 -0.001975
  3C   1dxz       0.000002 -0.000019  0.000011  0.000060  0.000033 -0.000070
  3C   1dyz       0.000010  0.000005 -0.000012  0.000026 -0.000010 -0.000026
  3C   1dx2y2    -0.000250  0.000117 -0.000968  0.000217 -0.001105  0.000081
  3C   1dxy      -0.000744 -0.000587  0.000175 -0.000143  0.000370  0.000196
  4C   1s         0.404356  0.414878 -0.391694  0.389310 -0.416639 -0.402888
  4C   2s         0.016015  0.019139 -0.018184  0.020051 -0.021605 -0.022681
  4C   3s        -0.006038 -0.002559  0.003168 -0.020505  0.022388  0.028580
  4C   1pz        0.000022  0.000014 -0.000001 -0.000012 -0.000003  0.000014
  4C   1px       -0.001075 -0.000307  0.000478  0.000036 -0.000381 -0.000726
  4C   1py       -0.000143 -0.001236 -0.001275  0.001717  0.001522 -0.000031
  4C   2pz       -0.000006  0.000077 -0.000021  0.000077 -0.000066 -0.000049
  4C   2px        0.000270 -0.002027  0.002962 -0.003172  0.003829  0.002347
  4C   2py        0.000052 -0.005753 -0.005771 -0.002181 -0.001376  0.000384
  4C   1dz2      -0.000207 -0.000416  0.000435 -0.001280  0.001404  0.001985
  4C   1dxz      -0.000023 -0.000020  0.000025 -0.000046  0.000044  0.000063
  4C   1dyz       0.000000  0.000010  0.000019 -0.000033 -0.000000  0.000023
  4C   1dx2y2     0.000776  0.000518 -0.000222 -0.000184 -0.000094  0.000196
  4C   1dxy       0.000116 -0.000607 -0.000802  0.000863  0.000799  0.000057
  5C   1s         0.393924 -0.118462 -0.551130  0.179264  0.548964  0.412398
  5C   2s         0.015468 -0.005420 -0.025435  0.009198  0.028301  0.023120
  5C   3s        -0.005503  0.000449  0.003440 -0.009318 -0.028952 -0.028654
  5C   1pz        0.000016 -0.000028 -0.000002 -0.000034  0.000007 -0.000010
  5C   1px       -0.000478  0.001635 -0.000121  0.002026 -0.000522  0.000284
  5C   1py       -0.000978 -0.000614  0.000658 -0.000853  0.000548  0.000658
  5C   2pz       -0.000004 -0.000131 -0.000021  0.000058  0.000056  0.000037
  5C   2px        0.000183  0.007551 -0.000209 -0.002836 -0.001261 -0.001106
  5C   2py        0.000284 -0.002690  0.003815 -0.000339 -0.004627 -0.002166
  5C   1dz2      -0.000172  0.000105  0.000560 -0.000580 -0.001815 -0.001995
  5C   1dxz       0.000001 -0.000017  0.000019 -0.000042 -0.000055 -0.000069
  5C   1dyz      -0.000017 -0.000004  0.000018 -0.000015 -0.000017 -0.000019
  5C   1dx2y2    -0.000516  0.000836  0.000175  0.000869 -0.000250  0.000117
  5C   1dxy       0.000591  0.000552 -0.000549  0.000730 -0.000266 -0.000155
  6H   1s        -0.001778  0.003505  0.001120  0.002978  0.000628  0.001697
  6H   2s         0.002204 -0.001401 -0.000477 -0.003910 -0.000835 -0.004078
  6H   1pz       -0.000006  0.000013 -0.000012  0.000010  0.000007  0.000009
  6H   1px        0.000595 -0.001038  0.000354 -0.001033 -0.000418 -0.000906
  6H   1py       -0.000841  0.001054  0.000829  0.001555  0.000189  0.001274
  7H   1s        -0.001727  0.002660 -0.002495 -0.002093  0.002249 -0.001767
  7H   2s         0.002142 -0.000990  0.001013  0.002745 -0.002958  0.004103
  7H   1pz       -0.000020  0.000019 -0.000024 -0.000027  0.000028 -0.000032
  7H   1px        0.000993 -0.001132  0.000984  0.001286 -0.001418  0.001586
  7H   1py        0.000084  0.000445  0.000684  0.000294  0.000033  0.000127
  8H   1s        -0.001676 -0.000769 -0.003538 -0.000957 -0.002950  0.001826
  8H   2s         0.002053  0.000244  0.001315  0.001267  0.003871 -0.004125
  8H   1pz       -0.000013  0.000008 -0.000023 -0.000012 -0.000025  0.000023
  8H   1px        0.000403 -0.000584  0.000768  0.000457  0.000710 -0.000670
  8H   1py        0.000874  0.000606  0.001240  0.000449  0.001705 -0.001471
  9H   1s        -0.001778 -0.003505 -0.001122  0.002979  0.000625 -0.001698
  9H   2s         0.002204  0.001400  0.000479 -0.003912 -0.000830  0.004078
  9H   1pz        0.000006  0.000013 -0.000012 -0.000010 -0.000007  0.000009
  9H   1px       -0.000595 -0.001038  0.000353  0.001034  0.000417 -0.000907
  9H   1py        0.000840  0.001054  0.000830 -0.001555 -0.000188  0.001274
 10H   1s        -0.001730 -0.002660  0.002494 -0.002092  0.002250  0.001763
 10H   2s         0.002143  0.000990 -0.001012  0.002746 -0.002962 -0.004099
 10H   1pz        0.000020  0.000019 -0.000024  0.000027 -0.000028 -0.000032
 10H   1px       -0.000994 -0.001132  0.000983 -0.001286  0.001419  0.001584
 10H   1py       -0.000084  0.000445  0.000684 -0.000294 -0.000033  0.000127
 11H   1s        -0.001678  0.000770  0.003537 -0.000956 -0.002951 -0.001823
 11H   2s         0.002054 -0.000245 -0.001314  0.001265  0.003875  0.004121
 11H   1pz        0.000013  0.000008 -0.000023  0.000012  0.000025  0.000023
 11H   1px       -0.000404 -0.000584  0.000767 -0.000456 -0.000711 -0.000670
 11H   1py       -0.000875  0.000607  0.001240 -0.000449 -0.001706 -0.001469
                      6         7         8         9        10        11   
                  -0.84172  -0.73377  -0.73377  -0.59335  -0.59335  -0.51789
                   2.00000   2.00000   2.00000   2.00000   2.00000   2.00000
                  --------  --------  --------  --------  --------  --------
  0C   1s         0.119449  0.161933 -0.040500 -0.123605  0.042516  0.013311
  0C   2s        -0.228849 -0.320644  0.080182  0.255320 -0.087844 -0.026973
  0C   3s        -0.049857 -0.074239  0.018561  0.075251 -0.025898 -0.029300
  0C   1pz       -0.000394 -0.000720 -0.002175 -0.001702 -0.003799  0.001163
  0C   1px        0.038436  0.039127  0.087003  0.089621  0.149410 -0.113052
  0C   1py       -0.054527 -0.007113  0.070004 -0.009443  0.130291  0.160413
  0C   2pz       -0.000091 -0.000242 -0.000757 -0.000382 -0.001208  0.000391
  0C   2px        0.008579  0.012275  0.030517  0.014425  0.050048 -0.038529
  0C   2py       -0.012115 -0.000609  0.023833  0.015344  0.033470  0.054681
  0C   1dz2       0.007923  0.006611 -0.001656 -0.002058  0.000705 -0.000154
  0C   1dxz       0.000299  0.000346  0.000107 -0.000022  0.000152  0.000069
  0C   1dyz       0.000127  0.000135 -0.000186 -0.000053 -0.000096  0.000091
  0C   1dx2y2    -0.000743 -0.004590 -0.010033 -0.002682 -0.007444 -0.001937
  0C   1dxy      -0.002094 -0.004561  0.005130  0.000619  0.002770 -0.005430
  1C   1s         0.119448  0.045886 -0.160487  0.024993 -0.128303  0.013307
  1C   2s        -0.228830 -0.090855  0.317779 -0.051641  0.265043 -0.026967
  1C   3s        -0.049908 -0.020936  0.073446 -0.015201  0.078100 -0.029208
  1C   1pz       -0.001346 -0.000696  0.000415  0.001229 -0.001048  0.003956
  1C   1px        0.066423 -0.001975 -0.030832  0.006538  0.064949 -0.195402
  1C   1py        0.006011  0.110739  0.028937 -0.204951 -0.034141 -0.017703
  1C   2pz       -0.000299 -0.000223  0.000098  0.000283  0.000146  0.001354
  1C   2px        0.014798 -0.001412 -0.008351  0.006526 -0.003264 -0.066661
  1C   2py        0.001415  0.038434  0.010185 -0.062179 -0.012506 -0.006006
  1C   1dz2       0.007925  0.001872 -0.006555  0.000417 -0.002133 -0.000152
  1C   1dxz       0.000224  0.000063 -0.000095 -0.000009 -0.000084 -0.000124
  1C   1dyz       0.000098  0.000254 -0.000028 -0.000165 -0.000057  0.000015
  1C   1dx2y2     0.002191  0.003618 -0.005127 -0.001545  0.000035  0.005669
  1C   1dxy       0.000400 -0.010597 -0.004156  0.008100  0.001640  0.001034
  2C   1s         0.119450 -0.116046 -0.119987  0.098621  0.085796  0.013317
  2C   2s        -0.228848  0.229803  0.237592 -0.203729 -0.177251 -0.026996
  2C   3s        -0.049949  0.052939  0.055050 -0.060004 -0.052090 -0.029280
  2C   1pz       -0.000952  0.001535 -0.000901  0.002735 -0.001783  0.002795
  2C   1px        0.028001 -0.083484  0.063670 -0.144090  0.125514 -0.082361
  2C   1py        0.060539  0.016241 -0.052607  0.014496 -0.103466 -0.178113
  2C   2pz       -0.000216  0.000508 -0.000339  0.000579 -0.000764  0.000951
  2C   2px        0.006210 -0.028268  0.022863 -0.036436  0.044746 -0.028107
  2C   2py        0.013584  0.007161 -0.016749  0.020552 -0.017445 -0.060658
  2C   1dz2       0.007924 -0.004732 -0.004903  0.001643  0.001421 -0.000152
  2C   1dxz       0.000287 -0.000353 -0.000046 -0.000053  0.000169  0.000039
  2C   1dyz       0.000048 -0.000037  0.000089 -0.000019  0.000069 -0.000113
  2C   1dx2y2    -0.001438  0.009018 -0.003302  0.004366 -0.004685 -0.003732
  2C   1dxy       0.001699  0.002168 -0.008485  0.003376 -0.004268  0.004395
  3C   1s         0.119449 -0.161933  0.040500 -0.123605  0.042516  0.013311
  3C   2s        -0.228849  0.320644 -0.080182  0.255320 -0.087844 -0.026974
  3C   3s        -0.049858  0.074239 -0.018561  0.075249 -0.025898 -0.029304
  3C   1pz        0.000394 -0.000720 -0.002174  0.001702  0.003799 -0.001163
  3C   1px       -0.038436  0.039127  0.087003 -0.089620 -0.149410  0.113052
  3C   1py        0.054527 -0.007113  0.070004  0.009443 -0.130291 -0.160413
  3C   2pz        0.000091 -0.000242 -0.000757  0.000382  0.001208 -0.000391
  3C   2px       -0.008579  0.012275  0.030517 -0.014426 -0.050048  0.038529
  3C   2py        0.012116 -0.000609  0.023833 -0.015343 -0.033469 -0.054680
  3C   1dz2       0.007923 -0.006611  0.001656 -0.002058  0.000705 -0.000154
  3C   1dxz       0.000299 -0.000346 -0.000107 -0.000022  0.000152  0.000069
  3C   1dyz       0.000127 -0.000135  0.000186 -0.000053 -0.000096  0.000092
  3C   1dx2y2    -0.000743  0.004590  0.010034 -0.002682 -0.007444 -0.001937
  3C   1dxy      -0.002094  0.004561 -0.005130  0.000619  0.002770 -0.005430
  4C   1s         0.119448 -0.045886  0.160487  0.024993 -0.128303  0.013307
  4C   2s        -0.228830  0.090856 -0.317779 -0.051641  0.265044 -0.026967
  4C   3s        -0.049906  0.020935 -0.073446 -0.015198  0.078100 -0.029205
  4C   1pz        0.001346 -0.000696  0.000415 -0.001229  0.001048 -0.003956
  4C   1px       -0.066423 -0.001975 -0.030833 -0.006539 -0.064949  0.195402
  4C   1py       -0.006011  0.110739  0.028937  0.204951  0.034141  0.017703
  4C   2pz        0.000299 -0.000223  0.000098 -0.000283 -0.000146 -0.001354
  4C   2px       -0.014797 -0.001412 -0.008351 -0.006525  0.003265  0.066662
  4C   2py       -0.001415  0.038434  0.010185  0.062179  0.012506  0.006006
  4C   1dz2       0.007925 -0.001872  0.006555  0.000417 -0.002133 -0.000152
  4C   1dxz       0.000224 -0.000063  0.000095 -0.000009 -0.000084 -0.000124
  4C   1dyz       0.000098 -0.000254  0.000028 -0.000165 -0.000057  0.000015
  4C   1dx2y2     0.002191 -0.003618  0.005127 -0.001544  0.000035  0.005669
  4C   1dxy       0.000400  0.010597  0.004156  0.008100  0.001640  0.001034
  5C   1s         0.119450  0.116046  0.119987  0.098622  0.085796  0.013317
  5C   2s        -0.228848 -0.229803 -0.237593 -0.203729 -0.177251 -0.026997
  5C   3s        -0.049951 -0.052938 -0.055050 -0.060007 -0.052090 -0.029282
  5C   1pz        0.000952  0.001535 -0.000901 -0.002735  0.001783 -0.002796
  5C   1px       -0.028001 -0.083483  0.063670  0.144090 -0.125514  0.082361
  5C   1py       -0.060539  0.016241 -0.052607 -0.014496  0.103466  0.178114
  5C   2pz        0.000216  0.000508 -0.000339 -0.000579  0.000764 -0.000951
  5C   2px       -0.006210 -0.028268  0.022863  0.036436 -0.044746  0.028106
  5C   2py       -0.013585  0.007162 -0.016748 -0.020553  0.017445  0.060657
  5C   1dz2       0.007924  0.004732  0.004903  0.001643  0.001421 -0.000152
  5C   1dxz       0.000287  0.000353  0.000046 -0.000053  0.000169  0.000039
  5C   1dyz       0.000048  0.000037 -0.000089 -0.000019  0.000069 -0.000113
  5C   1dx2y2    -0.001438 -0.009018  0.003302  0.004366 -0.004685 -0.003732
  5C   1dxy       0.001699 -0.002168  0.008485  0.003376 -0.004268  0.004395
  6H   1s        -0.043471 -0.096116  0.024046  0.141415 -0.048631 -0.140153
  6H   2s        -0.008693 -0.016227  0.004056  0.041648 -0.014337 -0.031167
  6H   1pz       -0.000044 -0.000083 -0.000021  0.000045 -0.000103 -0.000047
  6H   1px        0.004249  0.007512 -0.000185 -0.005871  0.005608  0.004553
  6H   1py       -0.006029 -0.009811  0.003648  0.010678 -0.001142 -0.006459
  7H   1s        -0.043474 -0.027231  0.095254 -0.028597  0.146787 -0.140139
  7H   2s        -0.008681 -0.004572  0.016039 -0.008430  0.043213 -0.031139
  7H   1pz       -0.000149 -0.000080  0.000244 -0.000030  0.000257 -0.000159
  7H   1px        0.007343  0.003309 -0.012233  0.002806 -0.012442  0.007866
  7H   1py        0.000663  0.002237 -0.000551 -0.003837 -0.001924  0.000711
  8H   1s        -0.043481  0.068888  0.071220 -0.112822 -0.098166 -0.140164
  8H   2s        -0.008724  0.011652  0.012007 -0.033221 -0.028952 -0.031189
  8H   1pz       -0.000105  0.000148  0.000109 -0.000096 -0.000167 -0.000112
  8H   1px        0.003099 -0.005027 -0.002574  0.001579  0.006376  0.003319
  8H   1py        0.006694 -0.007426 -0.008888  0.009913  0.006314  0.007172
  9H   1s        -0.043471  0.096116 -0.024045  0.141414 -0.048632 -0.140153
  9H   2s        -0.008693  0.016227 -0.004056  0.041648 -0.014338 -0.031167
  9H   1pz        0.000044 -0.000083 -0.000020 -0.000045  0.000103  0.000047
  9H   1px       -0.004249  0.007512 -0.000185  0.005871 -0.005608 -0.004553
  9H   1py        0.006029 -0.009811  0.003648 -0.010678  0.001142  0.006459
 10H   1s        -0.043474  0.027231 -0.095254 -0.028596  0.146787 -0.140139
 10H   2s        -0.008681  0.004572 -0.016039 -0.008430  0.043213 -0.031138
 10H   1pz        0.000149 -0.000080  0.000244  0.000030 -0.000257  0.000159
 10H   1px       -0.007343  0.003309 -0.012233 -0.002806  0.012442 -0.007866
 10H   1py       -0.000663  0.002237 -0.000551  0.003837  0.001924 -0.000711
 11H   1s        -0.043481 -0.068887 -0.071220 -0.112821 -0.098166 -0.140166
 11H   2s        -0.008725 -0.011651 -0.012007 -0.033221 -0.028952 -0.031190
 11H   1pz        0.000105  0.000148  0.000109  0.000096  0.000167  0.000112
 11H   1px       -0.003099 -0.005027 -0.002574 -0.001579 -0.006376 -0.003319
 11H   1py       -0.006694 -0.007426 -0.008888 -0.009913 -0.006314 -0.007172
                     12        13        14        15        16        17   
                  -0.45325  -0.44496  -0.41853  -0.41851  -0.36492  -0.34297
                   2.00000   2.00000   2.00000   2.00000   2.00000   2.00000
                  --------  --------  --------  --------  --------  --------
  0C   1s        -0.075054  0.000056 -0.022392  0.019470  0.000000 -0.004854
  0C   2s         0.156651 -0.000124  0.060706 -0.052785 -0.000000  0.020582
  0C   3s         0.375154 -0.000267  0.079931 -0.069272 -0.000001 -0.053587
  0C   1pz       -0.000780 -0.005562  0.002495  0.000094  0.227768 -0.000665
  0C   1px        0.075353  0.228557 -0.178898  0.063008  0.004491 -0.042547
  0C   1py       -0.106615  0.161197  0.156743 -0.201252  0.001501  0.227871
  0C   2pz        0.000682 -0.001815 -0.000303 -0.001165  0.122778 -0.000632
  0C   2px       -0.066243  0.074577 -0.010223  0.067775  0.002411  0.020479
  0C   2py        0.093921  0.052453  0.076467 -0.024837  0.000810  0.034727
  0C   1dz2      -0.000767 -0.000001  0.000243 -0.000209  0.000113  0.000763
  0C   1dxz       0.000140  0.000076 -0.000175 -0.000142 -0.006358 -0.000147
  0C   1dyz       0.000203 -0.000061  0.000070  0.000172  0.009023 -0.000351
  0C   1dx2y2    -0.004363 -0.004410  0.009403  0.008842 -0.000185  0.002391
  0C   1dxy      -0.012223  0.001580 -0.000255 -0.005850  0.000135  0.019113
  1C   1s         0.075061 -0.000046  0.005645  0.029117  0.000001  0.000805
  1C   2s        -0.156685  0.000090 -0.015312 -0.078937 -0.000004 -0.003421
  1C   3s        -0.375022  0.000242 -0.020236 -0.104099 -0.000009  0.008859
  1C   1pz        0.002629  0.001348 -0.000759 -0.006136  0.227777  0.000584
  1C   1px       -0.129918  0.025378  0.065647  0.297885  0.004468  0.058885
  1C   1py       -0.011949 -0.278579 -0.078153  0.043332  0.001513 -0.260999
  1C   2pz       -0.002318  0.000441 -0.000604 -0.001750  0.122796  0.000435
  1C   2px        0.114464  0.008199  0.012365  0.089543  0.002412  0.011883
  1C   2py        0.010287 -0.090838  0.054728 -0.002246  0.000803 -0.100097
  1C   1dz2       0.000756 -0.000000 -0.000057 -0.000309  0.000386 -0.000122
  1C   1dxz       0.000292 -0.000014 -0.000058 -0.000080 -0.010985 -0.000103
  1C   1dyz      -0.000030 -0.000096 -0.000273  0.000061 -0.000993 -0.000228
  1C   1dx2y2    -0.012768 -0.000832 -0.001681  0.004211 -0.000210  0.001018
  1C   1dxy      -0.002329  0.004612  0.013302 -0.001870 -0.000093  0.011842
  2C   1s        -0.075054  0.000047  0.028045  0.009682 -0.000001  0.004050
  2C   2s         0.156662 -0.000092 -0.076033 -0.026244  0.000001 -0.017160
  2C   3s         0.375151 -0.000263 -0.100111 -0.034442  0.000021  0.044683
  2C   1pz       -0.001856  0.004213 -0.004531 -0.000206  0.227772  0.000044
  2C   1px        0.054622 -0.253901  0.146721 -0.031289  0.004466 -0.079387
  2C   1py        0.118589  0.117393  0.251072  0.124414  0.001491  0.230302
  2C   2pz        0.001643  0.001370 -0.000944 -0.001191  0.122781  0.000777
  2C   2px       -0.048363 -0.082692  0.019873  0.059040  0.002411 -0.052449
  2C   2py       -0.104307  0.038319  0.085075  0.005117  0.000796  0.039418
  2C   1dz2      -0.000762  0.000003 -0.000302 -0.000099  0.000273 -0.000628
  2C   1dxz       0.000074 -0.000091  0.000104 -0.000242 -0.004629 -0.000041
  2C   1dyz      -0.000258 -0.000036 -0.000040 -0.000125 -0.010015 -0.000365
  2C   1dx2y2    -0.008400  0.003576 -0.005756  0.009008 -0.000024 -0.004592
  2C   1dxy       0.009892  0.003026 -0.000091  0.009305 -0.000228  0.016665
  3C   1s         0.075054 -0.000056  0.022392 -0.019470 -0.000000 -0.004854
  3C   2s        -0.156651  0.000123 -0.060706  0.052785  0.000001  0.020582
  3C   3s        -0.375156  0.000267 -0.079932  0.069271  0.000001 -0.053584
  3C   1pz       -0.000780 -0.005562  0.002495  0.000094  0.227768  0.000663
  3C   1px        0.075353  0.228556 -0.178898  0.063008  0.004491  0.042548
  3C   1py       -0.106614  0.161198  0.156743 -0.201252  0.001499 -0.227870
  3C   2pz        0.000683 -0.001815 -0.000303 -0.001165  0.122778  0.000631
  3C   2px       -0.066243  0.074577 -0.010224  0.067775  0.002410 -0.020477
  3C   2py        0.093923  0.052453  0.076467 -0.024836  0.000809 -0.034729
  3C   1dz2       0.000767  0.000001 -0.000243  0.000209 -0.000113  0.000763
  3C   1dxz      -0.000140 -0.000076  0.000175  0.000142  0.006358 -0.000147
  3C   1dyz      -0.000203  0.000061 -0.000070 -0.000172 -0.009023 -0.000351
  3C   1dx2y2     0.004363  0.004410 -0.009403 -0.008842  0.000185  0.002391
  3C   1dxy       0.012223 -0.001580  0.000255  0.005850 -0.000135  0.019113
  4C   1s        -0.075061  0.000046 -0.005645 -0.029116 -0.000001  0.000805
  4C   2s         0.156685 -0.000090  0.015312  0.078936  0.000004 -0.003420
  4C   3s         0.375023 -0.000241  0.020236  0.104099  0.000009  0.008855
  4C   1pz        0.002629  0.001348 -0.000759 -0.006136  0.227777 -0.000585
  4C   1px       -0.129919  0.025379  0.065646  0.297886  0.004468 -0.058884
  4C   1py       -0.011950 -0.278580 -0.078153  0.043331  0.001514  0.260998
  4C   2pz       -0.002318  0.000441 -0.000603 -0.001750  0.122796 -0.000435
  4C   2px        0.114464  0.008199  0.012365  0.089544  0.002412 -0.011885
  4C   2py        0.010288 -0.090839  0.054728 -0.002246  0.000803  0.100097
  4C   1dz2      -0.000756  0.000000  0.000057  0.000309 -0.000386 -0.000122
  4C   1dxz      -0.000292  0.000014  0.000058  0.000080  0.010985 -0.000103
  4C   1dyz       0.000030  0.000096  0.000273 -0.000061  0.000992 -0.000228
  4C   1dx2y2     0.012768  0.000832  0.001681 -0.004211  0.000210  0.001018
  4C   1dxy       0.002329 -0.004612 -0.013302  0.001870  0.000093  0.011842
  5C   1s         0.075053 -0.000047 -0.028045 -0.009682  0.000001  0.004050
  5C   2s        -0.156661  0.000092  0.076033  0.026244 -0.000002 -0.017160
  5C   3s        -0.375149  0.000263  0.100111  0.034443 -0.000021  0.044688
  5C   1pz       -0.001856  0.004212 -0.004531 -0.000206  0.227773 -0.000045
  5C   1px        0.054621 -0.253902  0.146722 -0.031289  0.004466  0.079386
  5C   1py        0.118587  0.117394  0.251072  0.124414  0.001490 -0.230302
  5C   2pz        0.001643  0.001370 -0.000944 -0.001191  0.122781 -0.000778
  5C   2px       -0.048364 -0.082692  0.019874  0.059040  0.002411  0.052449
  5C   2py       -0.104307  0.038319  0.085076  0.005117  0.000796 -0.039416
  5C   1dz2       0.000762 -0.000003  0.000302  0.000099 -0.000273 -0.000628
  5C   1dxz      -0.000074  0.000091 -0.000104  0.000242  0.004629 -0.000041
  5C   1dyz       0.000259  0.000036  0.000040  0.000125  0.010015 -0.000365
  5C   1dx2y2     0.008400 -0.003576  0.005756 -0.009008  0.000024 -0.004592
  5C   1dxy      -0.009892 -0.003026  0.000091 -0.009305  0.000228  0.016665
  6H   1s         0.195434 -0.000111 -0.168072  0.145954  0.000006 -0.219456
  6H   2s         0.091389 -0.000061 -0.080504  0.069904  0.000007 -0.135154
  6H   1pz        0.000057 -0.000130 -0.000004  0.000075  0.005823 -0.000080
  6H   1px       -0.005496  0.005359  0.002379 -0.004996  0.000115  0.005459
  6H   1py        0.007813  0.003771 -0.006456  0.003537  0.000039 -0.004232
  7H   1s        -0.195388  0.000145  0.042413  0.218569 -0.000004  0.036524
  7H   2s        -0.091378  0.000058  0.020314  0.104668 -0.000001  0.022489
  7H   1pz       -0.000192  0.000032  0.000047  0.000172  0.005822  0.000049
  7H   1px        0.009509  0.000586 -0.001430 -0.008651  0.000114 -0.000591
  7H   1py        0.000858 -0.006528 -0.002797 -0.000267  0.000039 -0.005647
  8H   1s         0.195446 -0.000111  0.210462  0.072527 -0.000010  0.182944
  8H   2s         0.091446 -0.000037  0.100851  0.034765 -0.000005  0.112712
  8H   1pz        0.000135  0.000099  0.000105  0.000079  0.005822  0.000131
  8H   1px       -0.004012 -0.005948 -0.002695 -0.003525  0.000114 -0.005525
  8H   1py       -0.008671  0.002756 -0.007924 -0.001529  0.000039 -0.003512
  9H   1s        -0.195434  0.000112  0.168071 -0.145954 -0.000008 -0.219456
  9H   2s        -0.091389  0.000061  0.080504 -0.069904 -0.000008 -0.135154
  9H   1pz        0.000057 -0.000130 -0.000004  0.000075  0.005823  0.000080
  9H   1px       -0.005496  0.005359  0.002378 -0.004996  0.000115 -0.005459
  9H   1py        0.007813  0.003771 -0.006456  0.003537  0.000039  0.004232
 10H   1s         0.195389 -0.000146 -0.042412 -0.218569  0.000004  0.036524
 10H   2s         0.091378 -0.000058 -0.020314 -0.104668  0.000001  0.022489
 10H   1pz       -0.000192  0.000032  0.000047  0.000172  0.005822 -0.000049
 10H   1px        0.009509  0.000586 -0.001430 -0.008651  0.000114  0.000591
 10H   1py        0.000858 -0.006528 -0.002797 -0.000267  0.000039  0.005647
 11H   1s        -0.195445  0.000110 -0.210462 -0.072528  0.000011  0.182945
 11H   2s        -0.091445  0.000037 -0.100851 -0.034766  0.000005  0.112712
 11H   1pz        0.000135  0.000099  0.000105  0.000079  0.005822 -0.000131
 11H   1px       -0.004012 -0.005948 -0.002695 -0.003525  0.000114  0.005525
 11H   1py       -0.008671  0.002756 -0.007924 -0.001529  0.000039  0.003512
                     18        19        20        21        22        23   
                  -0.34296  -0.25265  -0.25264  -0.00586  -0.00585   0.06018
                   2.00000   2.00000   2.00000   0.00000   0.00000   0.00000
                  --------  --------  --------  --------  --------  --------
  0C   1s        -0.001873 -0.000001  0.000002 -0.000002  0.000004  0.042783
  0C   2s         0.007923  0.000005 -0.000003  0.000005 -0.000007 -0.096319
  0C   3s        -0.020453 -0.000021 -0.000006 -0.000006  0.000000 -0.518583
  0C   1pz        0.005476  0.100078 -0.332866  0.343364 -0.139728  0.000664
  0C   1px       -0.251512  0.001973 -0.006559  0.006758 -0.002747 -0.064677
  0C   1py       -0.077986  0.000670 -0.002201  0.002265 -0.000926  0.091777
  0C   2pz        0.001940  0.069361 -0.230676  0.467789 -0.190369  0.001627
  0C   2px       -0.081470  0.001369 -0.004549  0.009208 -0.003764 -0.157769
  0C   2py       -0.049529  0.000455 -0.001529  0.003074 -0.001251  0.223946
  0C   1dz2       0.000295  0.000670  0.000122  0.000321  0.001017 -0.002724
  0C   1dxz      -0.000260 -0.016596 -0.000499 -0.005017 -0.025178  0.000126
  0C   1dyz       0.000025 -0.009074 -0.009099 -0.013072 -0.013875  0.000247
  0C   1dx2y2     0.012633 -0.000266  0.000051 -0.000011 -0.000403 -0.005733
  0C   1dxy       0.003182 -0.000288 -0.000182 -0.000290 -0.000439 -0.016063
  1C   1s         0.005138 -0.000002 -0.000002 -0.000000 -0.000004  0.042781
  1C   2s        -0.021768  0.000005  0.000005 -0.000003  0.000009 -0.096319
  1C   3s         0.056541  0.000018  0.000008  0.000048 -0.000001 -0.518657
  1C   1pz       -0.004693 -0.238236 -0.253103 -0.292686 -0.227487  0.002263
  1C   1px        0.218403 -0.004682 -0.004964 -0.005742 -0.004470 -0.111790
  1C   1py        0.061650 -0.001589 -0.001684 -0.001939 -0.001510 -0.010119
  1C   2pz       -0.000434 -0.165107 -0.175413 -0.398753 -0.309951  0.005516
  1C   2px        0.016126 -0.003244 -0.003439 -0.007832 -0.006071 -0.272641
  1C   2py        0.017451 -0.001104 -0.001168 -0.002651 -0.002061 -0.024583
  1C   1dz2      -0.000793 -0.000059 -0.000303  0.000390 -0.000024 -0.002711
  1C   1dxz      -0.000430  0.006383  0.004191 -0.004900 -0.007343 -0.000442
  1C   1dyz       0.000087 -0.013779  0.013891 -0.019463  0.023805  0.000020
  1C   1dx2y2     0.019908  0.000216 -0.000008  0.000032 -0.000302  0.016773
  1C   1dxy       0.001804 -0.000228  0.000301 -0.000416  0.000419  0.003064
  2C   1s        -0.003268 -0.000003  0.000000 -0.000001  0.000004  0.042787
  2C   2s         0.013855  0.000006  0.000000  0.000002 -0.000008 -0.096357
  2C   3s        -0.036052  0.000019 -0.000007 -0.000009  0.000002 -0.518627
  2C   1pz        0.005159 -0.338306  0.079767 -0.050669  0.367224  0.001589
  2C   1px       -0.249096 -0.006646  0.001554 -0.000995  0.007213 -0.047109
  2C   1py       -0.041122 -0.002229  0.000532 -0.000335  0.002423 -0.101887
  2C   2pz        0.001350 -0.234441  0.055283 -0.069027  0.500317  0.003884
  2C   2px       -0.076726 -0.004610  0.001084 -0.001356  0.009822 -0.114980
  2C   2py        0.023214 -0.001544  0.000364 -0.000450  0.003282 -0.248460
  2C   1dz2       0.000514 -0.000062  0.000541  0.000826 -0.000096 -0.002718
  2C   1dxz      -0.000254 -0.001040 -0.018056 -0.028222 -0.000334  0.000038
  2C   1dyz       0.000180  0.008484  0.006473  0.011799  0.009336 -0.000360
  2C   1dx2y2     0.015080 -0.000077 -0.000398 -0.000633 -0.000068 -0.011042
  2C   1dxy      -0.003806  0.000160  0.000008  0.000045  0.000182  0.012995
  3C   1s        -0.001873 -0.000001  0.000001  0.000002 -0.000003  0.042784
  3C   2s         0.007923  0.000005 -0.000002 -0.000005  0.000007 -0.096318
  3C   3s        -0.020452 -0.000020 -0.000007  0.000006 -0.000001 -0.518630
  3C   1pz       -0.005475 -0.100079  0.332866  0.343364 -0.139727 -0.000664
  3C   1px        0.251513 -0.001973  0.006560  0.006758 -0.002746  0.064678
  3C   1py        0.077985 -0.000670  0.002200  0.002265 -0.000925 -0.091778
  3C   2pz       -0.001940 -0.069361  0.230676  0.467789 -0.190369 -0.001627
  3C   2px        0.081470 -0.001368  0.004549  0.009208 -0.003763  0.157757
  3C   2py        0.049529 -0.000455  0.001528  0.003075 -0.001250 -0.223936
  3C   1dz2       0.000295  0.000670  0.000122 -0.000321 -0.001017 -0.002723
  3C   1dxz      -0.000260 -0.016596 -0.000499  0.005017  0.025177  0.000126
  3C   1dyz       0.000025 -0.009074 -0.009099  0.013072  0.013875  0.000247
  3C   1dx2y2     0.012633 -0.000266  0.000051  0.000011  0.000403 -0.005733
  3C   1dxy       0.003182 -0.000288 -0.000182  0.000290  0.000439 -0.016063
  4C   1s         0.005138 -0.000002 -0.000002  0.000000  0.000004  0.042781
  4C   2s        -0.021768  0.000005  0.000004  0.000003 -0.000008 -0.096321
  4C   3s         0.056542  0.000017  0.000008 -0.000047  0.000001 -0.518622
  4C   1pz        0.004693  0.238236  0.253103 -0.292686 -0.227487 -0.002263
  4C   1px       -0.218403  0.004682  0.004964 -0.005743 -0.004470  0.111791
  4C   1py       -0.061650  0.001589  0.001683 -0.001939 -0.001510  0.010119
  4C   2pz        0.000435  0.165107  0.175413 -0.398753 -0.309951 -0.005517
  4C   2px       -0.016126  0.003244  0.003439 -0.007832 -0.006072  0.272661
  4C   2py       -0.017451  0.001104  0.001168 -0.002651 -0.002060  0.024584
  4C   1dz2      -0.000792 -0.000059 -0.000303 -0.000390  0.000024 -0.002711
  4C   1dxz      -0.000430  0.006383  0.004191  0.004900  0.007343 -0.000442
  4C   1dyz       0.000087 -0.013779  0.013891  0.019463 -0.023805  0.000020
  4C   1dx2y2     0.019908  0.000216 -0.000008 -0.000032  0.000302  0.016774
  4C   1dxy       0.001804 -0.000228  0.000301  0.000416 -0.000419  0.003064
  5C   1s        -0.003268 -0.000003  0.000000  0.000001 -0.000004  0.042787
  5C   2s         0.013855  0.000006  0.000000 -0.000003  0.000008 -0.096356
  5C   3s        -0.036051  0.000020 -0.000007  0.000010 -0.000003 -0.518671
  5C   1pz       -0.005159  0.338305 -0.079767 -0.050669  0.367224 -0.001589
  5C   1px        0.249095  0.006645 -0.001554 -0.000995  0.007213  0.047110
  5C   1py        0.041122  0.002229 -0.000532 -0.000335  0.002424  0.101886
  5C   2pz       -0.001349  0.234441 -0.055283 -0.069027  0.500317 -0.003885
  5C   2px        0.076726  0.004610 -0.001084 -0.001356  0.009821  0.114970
  5C   2py       -0.023215  0.001545 -0.000364 -0.000450  0.003283  0.248444
  5C   1dz2       0.000514 -0.000062  0.000541 -0.000826  0.000096 -0.002718
  5C   1dxz      -0.000254 -0.001040 -0.018056  0.028222  0.000334  0.000038
  5C   1dyz       0.000180  0.008484  0.006473 -0.011799 -0.009336 -0.000360
  5C   1dx2y2     0.015080 -0.000077 -0.000398  0.000633  0.000068 -0.011042
  5C   1dxy      -0.003806  0.000160  0.000008 -0.000045 -0.000182  0.012995
  6H   1s        -0.084529 -0.000009 -0.000004 -0.000011  0.000003  0.070488
  6H   2s        -0.052060 -0.000004 -0.000005 -0.000020  0.000013  0.756940
  6H   1pz        0.000090  0.003247 -0.010804  0.016551 -0.006736 -0.000033
  6H   1px       -0.002835  0.000064 -0.000213  0.000326 -0.000132  0.003183
  6H   1py       -0.005112  0.000021 -0.000071  0.000110 -0.000044 -0.004521
  7H   1s         0.232327 -0.000007  0.000007 -0.000010 -0.000005  0.070486
  7H   2s         0.143064 -0.000007  0.000004 -0.000019 -0.000010  0.756858
  7H   1pz        0.000137 -0.007731 -0.008214 -0.014108 -0.010965 -0.000111
  7H   1px       -0.007041 -0.000151 -0.000161 -0.000277 -0.000215  0.005505
  7H   1py        0.000238 -0.000051 -0.000054 -0.000094 -0.000072  0.000498
  8H   1s        -0.147790  0.000002  0.000001 -0.000000  0.000011  0.070479
  8H   2s        -0.091059  0.000001  0.000000 -0.000002  0.000024  0.756806
  8H   1pz        0.000003 -0.010979  0.002589 -0.002442  0.017702 -0.000079
  8H   1px       -0.002113 -0.000215  0.000050 -0.000048  0.000348  0.002322
  8H   1py        0.005879 -0.000072  0.000017 -0.000016  0.000117  0.005019
  9H   1s        -0.084529 -0.000008 -0.000004  0.000011 -0.000003  0.070488
  9H   2s        -0.052060 -0.000004 -0.000005  0.000019 -0.000012  0.756944
  9H   1pz       -0.000090 -0.003247  0.010804  0.016552 -0.006736  0.000033
  9H   1px        0.002835 -0.000064  0.000213  0.000326 -0.000132 -0.003183
  9H   1py        0.005112 -0.000021  0.000071  0.000110 -0.000044  0.004521
 10H   1s         0.232327 -0.000007  0.000007  0.000009  0.000005  0.070488
 10H   2s         0.143064 -0.000007  0.000004  0.000019  0.000010  0.756866
 10H   1pz       -0.000137  0.007731  0.008214 -0.014108 -0.010965  0.000111
 10H   1px        0.007041  0.000151  0.000161 -0.000277 -0.000215 -0.005505
 10H   1py       -0.000238  0.000051  0.000054 -0.000094 -0.000072 -0.000498
 11H   1s        -0.147790  0.000002  0.000001  0.000000 -0.000011  0.070479
 11H   2s        -0.091059  0.000001  0.000000  0.000002 -0.000023  0.756804
 11H   1pz       -0.000003  0.010979 -0.002589 -0.002442  0.017702  0.000079
 11H   1px        0.002113  0.000215 -0.000050 -0.000048  0.000348 -0.002322
 11H   1py       -0.005879  0.000072 -0.000017 -0.000016  0.000117 -0.005019
                     24        25        26        27        28        29   
                   0.10152   0.10153   0.13922   0.13925   0.15121   0.15989
                   0.00000   0.00000   0.00000   0.00000   0.00000   0.00000
                  --------  --------  --------  --------  --------  --------
  0C   1s        -0.040212  0.003903  0.075436  0.035412 -0.000004 -0.064004
  0C   2s         0.092210 -0.008963 -0.170372 -0.079928  0.000008  0.146325
  0C   3s         0.919178 -0.088985 -1.357744 -0.637578  0.000111 -0.222569
  0C   1pz       -0.001281 -0.000243  0.001138 -0.000751 -0.293671 -0.000461
  0C   1px        0.121758  0.003154 -0.082892  0.012024 -0.005773  0.043917
  0C   1py       -0.169745  0.026985  0.075957  0.071611 -0.001947 -0.062250
  0C   2pz       -0.003089  0.002702  0.006163 -0.004211 -0.584012 -0.006032
  0C   2px        0.310650 -0.129607 -0.445512  0.080437 -0.011497  0.585564
  0C   2py       -0.461050 -0.025406  0.395320  0.389988 -0.003910 -0.830721
  0C   1dz2      -0.000978  0.000095 -0.002199 -0.001031  0.000151  0.007071
  0C   1dxz      -0.000151 -0.000090 -0.000127 -0.000229 -0.008498  0.000317
  0C   1dyz      -0.000140  0.000097 -0.000224  0.000029  0.012064  0.000178
  0C   1dx2y2     0.003410  0.005710 -0.000688  0.009400 -0.000249 -0.001998
  0C   1dxy       0.007732 -0.002905  0.009881  0.001171  0.000181 -0.005601
  1C   1s        -0.023469 -0.032876 -0.068400  0.047617 -0.000006  0.064014
  1C   2s         0.053817  0.075406  0.154506 -0.107536  0.000018 -0.146370
  1C   3s         0.536825  0.751449  1.230999 -0.857081  0.000119  0.222570
  1C   1pz       -0.002379 -0.003489 -0.001845  0.001661  0.293661  0.001528
  1C   1px        0.122766  0.169112  0.102089 -0.064849  0.005778 -0.075901
  1C   1py       -0.003758  0.025941 -0.023139 -0.052394  0.001946 -0.006867
  1C   2pz       -0.006985 -0.008812 -0.009709  0.008695  0.584014  0.020473
  1C   2px        0.313964  0.458811  0.540052 -0.340571  0.011517 -1.012064
  1C   2py        0.127436 -0.029182 -0.135226 -0.295356  0.003930 -0.091564
[...]
  1C   1s        -0.046096 -0.104455 -0.045687 -0.034665 -0.000004  0.002829
  1C   2s         0.265167  0.380255  0.293895  0.222975  0.000040  0.019567
  1C   3s        -0.056888  4.868959 -0.159269 -0.120896 -0.000144 -1.569719
  1C   1pz        0.001398 -0.001620 -0.007271 -0.004478 -0.001891 -0.005424
  1C   1px       -0.156235  0.080470  0.325460  0.266351 -0.035321  0.268153
  1C   1py        0.252224  0.007373  0.133641 -0.113181  0.389176  0.024277
  1C   2pz        0.000864  0.034051 -0.012442 -0.009119  0.005952 -0.023489
  1C   2px       -0.053147 -1.680474  0.604648  0.464434  0.111227  1.160075
  1C   2py        0.027146 -0.152119  0.085033  0.002185 -1.226893  0.105058
  1C   1dz2      -0.087375 -0.558726 -0.186086 -0.141219 -0.000119 -0.040952
  1C   1dxz      -0.001482 -0.016889 -0.019970 -0.014641  0.002092 -0.017229
  1C   1dyz       0.012582 -0.006728 -0.001791  0.001969  0.014334  0.001837
  1C   1dx2y2     0.142070 -0.101544  0.628589  0.506142  0.125606  0.759322
  1C   1dxy      -0.645184 -0.018745  0.194334 -0.012182 -0.687231  0.138730
  2C   1s         0.025059  0.104440 -0.007178  0.056908  0.000015 -0.002820
  2C   2s        -0.144231 -0.380213  0.046183 -0.366094 -0.000093 -0.019628
  2C   3s         0.031640 -4.869141 -0.025100  0.198282  0.000114  1.569745
  2C   1pz        0.003843  0.001146 -0.003315  0.005635  0.005886  0.003833
  2C   1px       -0.263278 -0.034124  0.176651 -0.156188 -0.354698 -0.113015
  2C   1py        0.201050 -0.073459 -0.023549 -0.389164  0.164002 -0.244464
  2C   2pz        0.000202 -0.024087 -0.002114  0.010711 -0.018548  0.016599
  2C   2px       -0.024009  0.708243  0.085495 -0.313252  1.117819 -0.488955
  2C   2py        0.040740  1.531680  0.066013 -0.692011 -0.517418 -1.057422
  2C   1dz2       0.047741  0.558667 -0.029219  0.232095  0.000322  0.041249
  2C   1dxz      -0.013956  0.019798 -0.002672  0.001320 -0.013447 -0.004534
  2C   1dyz      -0.005398  0.004398 -0.003294  0.018166 -0.005366  0.015327
  2C   1dx2y2     0.621836 -0.066248  0.031322  0.539236  0.532517  0.499854
  2C   1dxy       0.511056  0.078857  0.161335 -0.609622  0.452251 -0.588253
  3C   1s         0.071261 -0.104407  0.052867 -0.022237  0.000007  0.002826
  3C   2s        -0.409753  0.379983 -0.340075  0.143029 -0.000042  0.019584
  3C   3s         0.083422  4.868944  0.184352 -0.077434 -0.000073 -1.569695
  3C   1pz        0.002364  0.000491 -0.000992  0.004116  0.007776  0.001601
  3C   1px       -0.165386 -0.046720  0.169782 -0.223456 -0.319381 -0.155140
  3C   1py        0.133799  0.066141 -0.356341  0.042649 -0.225111  0.220129
  3C   2pz        0.000611 -0.009965 -0.003805  0.002698 -0.024497  0.006900
  3C   2px       -0.051377  0.972220  0.390872 -0.208866  1.006561 -0.671180
  3C   2py        0.060626 -1.379445 -0.588014  0.215898  0.709734  0.952292
  3C   1dz2       0.135267 -0.558553  0.215831 -0.090754 -0.000132 -0.041456
  3C   1dxz       0.006519 -0.020367 -0.003164 -0.000974  0.011390  0.008501
  3C   1dyz      -0.000885 -0.008079 -0.009224  0.005698 -0.008975  0.012119
  3C   1dx2y2    -0.123684  0.034268  0.301391  0.005517 -0.657948 -0.259455
  3C   1dxy       0.083381  0.097015  0.695219 -0.339570  0.234778 -0.726994
  4C   1s         0.046096  0.104455 -0.045687 -0.034665 -0.000004 -0.002829
  4C   2s        -0.265167 -0.380253  0.293894  0.222973  0.000042 -0.019566
  4C   3s         0.056884 -4.868977 -0.159277 -0.120874 -0.000157  1.569726
  4C   1pz        0.001398 -0.001621  0.007271  0.004479  0.001890 -0.005424
  4C   1px       -0.156236  0.080467 -0.325456 -0.266350  0.035319  0.268152
  4C   1py        0.252223  0.007374 -0.133640  0.113180 -0.389177  0.024276
  4C   2pz        0.000864  0.034049  0.012442  0.009120 -0.005950 -0.023488
  4C   2px       -0.053149 -1.680483 -0.604649 -0.464425 -0.111234  1.160076
  4C   2py        0.027146 -0.152113 -0.085031 -0.002187  1.226895  0.105054
  4C   1dz2       0.087376  0.558728 -0.186085 -0.141221 -0.000119  0.040951
  4C   1dxz       0.001482  0.016889 -0.019970 -0.014641  0.002091  0.017229
  4C   1dyz      -0.012583  0.006727 -0.001791  0.001969  0.014334 -0.001836
  4C   1dx2y2    -0.142066  0.101546  0.628589  0.506140  0.125608 -0.759321
  4C   1dxy       0.645183  0.018747  0.194332 -0.012186 -0.687230 -0.138730
  5C   1s        -0.025059 -0.104440 -0.007178  0.056909  0.000014  0.002820
  5C   2s         0.144232  0.380212  0.046184 -0.366098 -0.000093  0.019629
  5C   3s        -0.031635  4.869152 -0.025089  0.198258  0.000123 -1.569751
  5C   1pz        0.003843  0.001146  0.003315 -0.005636 -0.005886  0.003833
  5C   1px       -0.263280 -0.034124 -0.176649  0.156188  0.354699 -0.113016
  5C   1py        0.201049 -0.073456  0.023550  0.389164 -0.164001 -0.244465
  5C   2pz        0.000201 -0.024085  0.002113 -0.010712  0.018546  0.016599
  5C   2px       -0.024008  0.708240 -0.085490  0.313249 -1.117822 -0.488952
  5C   2py        0.040740  1.531691 -0.066010  0.692003  0.517425 -1.057427
  5C   1dz2      -0.047742 -0.558667 -0.029220  0.232098  0.000322 -0.041250
  5C   1dxz       0.013956 -0.019797 -0.002673  0.001321 -0.013447  0.004533
  5C   1dyz       0.005398 -0.004399 -0.003294  0.018168 -0.005365 -0.015327
  5C   1dx2y2    -0.621834  0.066249  0.031326  0.539236  0.532518 -0.499854
  5C   1dxy      -0.511056 -0.078862  0.161336 -0.609621  0.452251  0.588254
  6H   1s        -0.037605  0.222523  0.721095 -0.303259 -0.000024  0.558361
  6H   2s         0.086127  0.150075  0.340073 -0.143027 -0.000042  0.262676
  6H   1pz        0.000797  0.002323  0.004872  0.000987 -0.005928  0.002312
  6H   1px       -0.019306 -0.225251 -0.410271  0.048297  0.243545 -0.222541
  6H   1py       -0.063651  0.319472  0.487868 -0.292763  0.171680  0.315757
  7H   1s        -0.023991 -0.222533 -0.623191 -0.472825  0.000026 -0.558352
  7H   2s         0.056027 -0.150022 -0.293909 -0.222985  0.000024 -0.262666
  7H   1pz       -0.001681 -0.007875 -0.010630 -0.008929 -0.001440 -0.007766
  7H   1px        0.004242  0.389229  0.554217  0.404595 -0.026935  0.384645
  7H   1py        0.241148  0.035286 -0.034806  0.148704  0.296848  0.034886
  8H   1s         0.013388  0.222648 -0.097896  0.776207  0.000213  0.558432
  8H   2s        -0.030265  0.150106 -0.046148  0.366038  0.000090  0.262692
  8H   1pz        0.004607  0.005570  0.000868  0.009981  0.004491  0.005481
  8H   1px       -0.271310 -0.164213 -0.090000 -0.302743 -0.270565 -0.162100
  8H   1py        0.109571 -0.354838  0.136631 -0.613146  0.124984 -0.350653
  9H   1s         0.037606 -0.222525  0.721094 -0.303254 -0.000031 -0.558358
  9H   2s        -0.086127 -0.150075  0.340074 -0.143025 -0.000045 -0.262675
  9H   1pz        0.000798  0.002323 -0.004871 -0.000987  0.005928  0.002312
  9H   1px       -0.019305 -0.225251  0.410268 -0.048293 -0.243548 -0.222538
  9H   1py       -0.063651  0.319474 -0.487870  0.292759 -0.171674  0.315758
 10H   1s         0.023990  0.222531 -0.623187 -0.472822  0.000022  0.558350
 10H   2s        -0.056027  0.150021 -0.293908 -0.222985  0.000022  0.262665
 10H   1pz       -0.001682 -0.007875  0.010631  0.008929  0.001440 -0.007767
 10H   1px        0.004241  0.389227 -0.554213 -0.404595  0.026931  0.384644
 10H   1py        0.241147  0.035285  0.034808 -0.148703 -0.296848  0.034884
 11H   1s        -0.013389 -0.222644 -0.097894  0.776209  0.000215 -0.558434
 11H   2s         0.030265 -0.150103 -0.046148  0.366038  0.000092 -0.262693
 11H   1pz        0.004607  0.005570 -0.000867 -0.009983 -0.004491  0.005482
 11H   1px       -0.271310 -0.164212  0.090002  0.302743  0.270566 -0.162100
 11H   1py        0.109569 -0.354835 -0.136630  0.613147 -0.124984 -0.350654



                    ********************************
                    * MULLIKEN POPULATION ANALYSIS *
                    ********************************

-----------------------
MULLIKEN ATOMIC CHARGES
-----------------------
   0 C :    0.016482
   1 C :    0.016357
   2 C :    0.016670
   3 C :    0.016480
   4 C :    0.016360
   5 C :    0.016669
   6 H :   -0.016474
   7 H :   -0.016380
   8 H :   -0.016656
   9 H :   -0.016473
  10 H :   -0.016380
  11 H :   -0.016656
Sum of atomic charges:   -0.0000000

--------------------------------
MULLIKEN REDUCED ORBITAL CHARGES
--------------------------------
  0 C s       :     3.159962  s :     3.159962
      pz      :     0.986691  p :     2.788899
      px      :     0.921068
      py      :     0.881140
      dz2     :     0.002506  d :     0.034657
      dxz     :     0.004976
      dyz     :     0.003629
      dx2y2   :     0.010833
      dxy     :     0.012713
  1 C s       :     3.159695  s :     3.159695
      pz      :     0.986709  p :     2.789287
      px      :     0.842871
      py      :     0.959707
      dz2     :     0.002502  d :     0.034660
      dxz     :     0.002329
      dyz     :     0.006278
      dx2y2   :     0.012910
      dxy     :     0.010641
  2 C s       :     3.159885  s :     3.159885
      pz      :     0.986669  p :     2.788788
      px      :     0.939571
      py      :     0.862548
      dz2     :     0.002504  d :     0.034657
      dxz     :     0.005601
      dyz     :     0.003005
      dx2y2   :     0.011580
      dxy     :     0.011968
  3 C s       :     3.159963  s :     3.159963
      pz      :     0.986691  p :     2.788899
      px      :     0.921069
      py      :     0.881139
      dz2     :     0.002506  d :     0.034657
      dxz     :     0.004976
      dyz     :     0.003629
      dx2y2   :     0.010833
      dxy     :     0.012713
  4 C s       :     3.159692  s :     3.159692
      pz      :     0.986709  p :     2.789287
      px      :     0.842872
      py      :     0.959707
      dz2     :     0.002502  d :     0.034660
      dxz     :     0.002329
      dyz     :     0.006278
      dx2y2   :     0.012910
      dxy     :     0.010641
  5 C s       :     3.159887  s :     3.159887
      pz      :     0.986669  p :     2.788787
      px      :     0.939570
      py      :     0.862548
      dz2     :     0.002504  d :     0.034657
      dxz     :     0.005601
      dyz     :     0.003005
      dx2y2   :     0.011580
      dxy     :     0.011968
  6 H s       :     0.993804  s :     0.993804
      pz      :     0.004671  p :     0.022669
      px      :     0.007082
      py      :     0.010916
  7 H s       :     0.993714  s :     0.993714
      pz      :     0.004675  p :     0.022666
      px      :     0.014599
      py      :     0.003392
  8 H s       :     0.993983  s :     0.993983
      pz      :     0.004673  p :     0.022673
      px      :     0.005310
      py      :     0.012690
  9 H s       :     0.993804  s :     0.993804
      pz      :     0.004671  p :     0.022669
      px      :     0.007082
      py      :     0.010916
 10 H s       :     0.993714  s :     0.993714
      pz      :     0.004675  p :     0.022666
      px      :     0.014599
      py      :     0.003392
 11 H s       :     0.993983  s :     0.993983
      pz      :     0.004673  p :     0.022673
      px      :     0.005310
      py      :     0.012690


                     *******************************
                     * LOEWDIN POPULATION ANALYSIS *
                     *******************************

----------------------
LOEWDIN ATOMIC CHARGES
----------------------
   0 C :   -0.026238
   1 C :   -0.026306
   2 C :   -0.026228
   3 C :   -0.026238
   4 C :   -0.026306
   5 C :   -0.026228
   6 H :    0.026263
   7 H :    0.026280
   8 H :    0.026229
   9 H :    0.026263
  10 H :    0.026281
  11 H :    0.026229

-------------------------------
LOEWDIN REDUCED ORBITAL CHARGES
-------------------------------
  0 C s       :     2.864035  s :     2.864035
      pz      :     0.968655  p :     3.072578
      px      :     1.057280
      py      :     1.046642
      dz2     :     0.006091  d :     0.089626
      dxz     :     0.010306
      dyz     :     0.007054
      dx2y2   :     0.030952
      dxy     :     0.035223
  1 C s       :     2.864036  s :     2.864036
      pz      :     0.968684  p :     3.072643
      px      :     1.036374
      py      :     1.067585
      dz2     :     0.006083  d :     0.089627
      dxz     :     0.003919
      dyz     :     0.013444
      dx2y2   :     0.035669
      dxy     :     0.030511
  2 C s       :     2.864033  s :     2.864033
      pz      :     0.968646  p :     3.072561
      px      :     1.062217
      py      :     1.041699
      dz2     :     0.006088  d :     0.089634
      dxz     :     0.011814
      dyz     :     0.005549
      dx2y2   :     0.032649
      dxy     :     0.033534
  3 C s       :     2.864035  s :     2.864035
      pz      :     0.968655  p :     3.072578
      px      :     1.057280
      py      :     1.046642
      dz2     :     0.006091  d :     0.089626
      dxz     :     0.010306
      dyz     :     0.007054
      dx2y2   :     0.030952
      dxy     :     0.035223
  4 C s       :     2.864036  s :     2.864036
      pz      :     0.968685  p :     3.072643
      px      :     1.036374
      py      :     1.067585
      dz2     :     0.006083  d :     0.089627
      dxz     :     0.003919
      dyz     :     0.013444
      dx2y2   :     0.035669
      dxy     :     0.030511
  5 C s       :     2.864032  s :     2.864032
      pz      :     0.968646  p :     3.072561
      px      :     1.062217
      py      :     1.041699
      dz2     :     0.006088  d :     0.089634
      dxz     :     0.011814
      dyz     :     0.005549
      dx2y2   :     0.032649
      dxy     :     0.033534
  6 H s       :     0.907418  s :     0.907418
      pz      :     0.014029  p :     0.066320
      px      :     0.020995
      py      :     0.031296
  7 H s       :     0.907397  s :     0.907397
      pz      :     0.014041  p :     0.066322
      px      :     0.041208
      py      :     0.011073
  8 H s       :     0.907449  s :     0.907449
      pz      :     0.014035  p :     0.066322
      px      :     0.016221
      py      :     0.036066
  9 H s       :     0.907418  s :     0.907418
      pz      :     0.014029  p :     0.066319
      px      :     0.020994
      py      :     0.031296
 10 H s       :     0.907397  s :     0.907397
      pz      :     0.014041  p :     0.066322
      px      :     0.041208
      py      :     0.011073
 11 H s       :     0.907449  s :     0.907449
      pz      :     0.014035  p :     0.066322
      px      :     0.016221
      py      :     0.036066


                      *****************************
                      * MAYER POPULATION ANALYSIS *
                      *****************************

  NA   - Mulliken gross atomic population
  ZA   - Total nuclear charge
  QA   - Mulliken gross atomic charge
  VA   - Mayer's total valence
  BVA  - Mayer's bonded valence
  FA   - Mayer's free valence

  ATOM       NA         ZA         QA         VA         BVA        FA
  0 C      5.9835     6.0000     0.0165     3.8538     3.8538    -0.0000
  1 C      5.9836     6.0000     0.0164     3.8539     3.8539    -0.0000
  2 C      5.9833     6.0000     0.0167     3.8539     3.8539     0.0000
  3 C      5.9835     6.0000     0.0165     3.8538     3.8538    -0.0000
  4 C      5.9836     6.0000     0.0164     3.8539     3.8539    -0.0000
  5 C      5.9833     6.0000     0.0167     3.8539     3.8539    -0.0000
  6 H      1.0165     1.0000    -0.0165     0.9773     0.9773    -0.0000
  7 H      1.0164     1.0000    -0.0164     0.9773     0.9773    -0.0000
  8 H      1.0167     1.0000    -0.0167     0.9773     0.9773     0.0000
  9 H      1.0165     1.0000    -0.0165     0.9773     0.9773    -0.0000
 10 H      1.0164     1.0000    -0.0164     0.9773     0.9773    -0.0000
 11 H      1.0167     1.0000    -0.0167     0.9773     0.9773    -0.0000

  Mayer bond orders larger than 0.100000
B(  0-C ,  1-C ) :   1.3925 B(  0-C ,  5-C ) :   1.3924 B(  0-C ,  6-H ) :   0.9840 
B(  1-C ,  2-C ) :   1.3927 B(  1-C ,  7-H ) :   0.9838 B(  2-C ,  3-C ) :   1.3924 
B(  2-C ,  8-H ) :   0.9840 B(  3-C ,  4-C ) :   1.3925 B(  3-C ,  9-H ) :   0.9840 
B(  4-C ,  5-C ) :   1.3927 B(  4-C , 10-H ) :   0.9838 B(  5-C , 11-H ) :   0.9840 


-------
TIMINGS
-------

Total SCF time: 0 days 0 hours 0 min 5 sec 

Total time                  ....       5.021 sec
Sum of individual times     ....       4.919 sec  ( 98.0%)

Fock matrix formation       ....       4.387 sec  ( 87.4%)
  Split-RI-J                ....       0.501 sec  ( 11.4% of F)
  Chain of spheres X        ....       3.119 sec  ( 71.1% of F)
  XC integration            ....       0.727 sec  ( 16.6% of F)
    Basis function eval.    ....       0.149 sec  ( 20.5% of XC)
    Density eval.           ....       0.155 sec  ( 21.2% of XC)
    XC-Functional eval.     ....       0.039 sec  (  5.4% of XC)
    XC-Potential eval.      ....       0.115 sec  ( 15.8% of XC)
Diagonalization             ....       0.023 sec  (  0.5%)
Density matrix formation    ....       0.004 sec  (  0.1%)
Population analysis         ....       0.005 sec  (  0.1%)
Initial guess               ....       0.036 sec  (  0.7%)
Orbital Transformation      ....       0.000 sec  (  0.0%)
Orbital Orthonormalization  ....       0.000 sec  (  0.0%)
DIIS solution               ....       0.024 sec  (  0.5%)
SOSCF solution              ....       0.014 sec  (  0.3%)
Grid generation             ....       0.425 sec  (  8.5%)

Maximum memory used throughout the entire SCF-calculation: 48.6 MB

-------------------------   --------------------
FINAL SINGLE POINT ENERGY      -231.930718955827
-------------------------   --------------------


                            ***************************************
                            *     ORCA property calculations      *
                            ***************************************

                                    ---------------------
                                    Active property flags
                                    ---------------------
   (+) Dipole Moment


------------------------------------------------------------------------------
                       ORCA ELECTRIC PROPERTIES CALCULATION
------------------------------------------------------------------------------

Dipole Moment Calculation                       ... on
Quadrupole Moment Calculation                   ... off
Polarizability Calculation                      ... off
GBWName                                         ... benzene-opt-ene_5.gbw
Electron density                                ... benzene-opt-ene_5.scfp
The origin for moment calculation is the CENTER OF MASS  = ( 0.000000, -0.000001 -0.000000)

-------------
DIPOLE MOMENT
-------------
                                X             Y             Z
Electronic contribution:     -0.00000      -0.00000      -0.00000
Nuclear contribution   :      0.00000       0.00000       0.00000
                        -----------------------------------------
Total Dipole Moment    :      0.00000      -0.00000       0.00000
                        -----------------------------------------
Magnitude (a.u.)       :      0.00000
Magnitude (Debye)      :      0.00000



--------------------
Rotational spectrum 
--------------------
 
Rotational constants in cm-1:     0.188736     0.188726     0.094365 
Rotational constants in MHz :  5658.151727  5657.850579  2829.000575 

 Dipole components along the rotational axes: 
x,y,z [a.u.] :     0.000000    -0.000001     0.000001 
x,y,z [Debye]:     0.000000    -0.000002     0.000002 

 

Timings for individual modules:

Sum of individual times         ...        6.095 sec (=   0.102 min)
GTO integral calculation        ...        0.701 sec (=   0.012 min)  11.5 %
SCF iterations                  ...        5.394 sec (=   0.090 min)  88.5 %
                             ****ORCA TERMINATED NORMALLY****
TOTAL RUN TIME: 0 days 0 hours 0 minutes 6 seconds 566 msec
