
                                 *****************
                                 * O   R   C   A *
                                 *****************

                                            #,                                       
                                            ###                                      
                                            ####                                     
                                            #####                                    
                                            ######                                   
                                           ########,                                 
                                     ,,################,,,,,                         
                               ,,#################################,,                 
                          ,,##########################################,,             
                       ,#########################################, ''#####,          
                    ,#############################################,,   '####,        
                  ,##################################################,,,,####,       
                ,###########''''           ''''###############################       
              ,#####''   ,,,,##########,,,,          '''####'''          '####       
            ,##' ,,,,###########################,,,                        '##       
           ' ,,###''''                  '''############,,,                           
         ,,##''                                '''############,,,,        ,,,,,,###''
      ,#''                                            '''#######################'''  
     '                                                          ''''####''''         
             ,#######,   #######,   ,#######,      ##                                
            ,#'     '#,  ##    ##  ,#'     '#,    #''#        ,####,    ,#,          
            ##       ##  ##   ,#'  ##            #'  '#       #'       ,# #          
            ##       ##  #######   ##           ,######,      #####,      #          
            '#,     ,#'  ##    ##  '#,     ,#' ,#      #,     #,   #      #          
             '#######'   ##     ##  '#######'  #'      '#     '####' #    #          



                #########################################################
                #                        -***-                          #
                #          Department of theory and spectroscopy        #
                #                                                       #
                #                      Frank Neese                      #
                #                                                       #
                #     Directorship, Architecture, Infrastructure        #
                #                    SHARK, DRIVERS                     #
                #        Core code/Algorithms in most modules           #
                #                                                       #
                #        Max Planck Institute fuer Kohlenforschung      #
                #                Kaiser Wilhelm Platz 1                 #
                #                 D-45470 Muelheim/Ruhr                 #
                #                      Germany                          #
                #                                                       #
                #                  All rights reserved                  #
                #                        -***-                          #
                #########################################################


                         Program Version 6.1.1  -  RELEASE   -
                                (GIT: $487d211c$)
                          ($2025-11-21 10:33:24 +0100$)


 With contributions from (in alphabetic order):
[Max-Planck-Institut fuer Kohlenforschung]                               
  Daniel Aravena         : Magnetic Suceptibility                        
  Michael Atanasov       : Ab Initio Ligand Field Theory (pilot matlab implementation)
  Alexander A. Auer      : GIAO ZORA, VPT2 properties, NMR spectrum      
  Ute Becker             : All parallelization in ORCA, NUMFREQ, NUMCALC 
  Giovanni Bistoni       : ED, misc. LED, open-shell LED, HFLD           
  Dmytro Bykov           : pre 5.0 version of the SCF Hessian            
  Marcos Casanova-Páez   : Triplet and SCS-CIS(D). UHF-(DLPNO)-IP/EA/STEOM-CCSD. UHF-CVS-IP/STEOM-CCSD   
  Vijay G. Chilkuri      : MRCI spin determinant printing, contributions to CSF-ICE 
  Pauline Colinet        : FMM embedding                                 
  Dipayan Datta          : RHF DLPNO-CCSD density                        
  Achintya Kumar Dutta   : EOM-CC, STEOM-CC                              
  Nicolas Foglia         : Exact transition moments, OPA infrastructure, MCD improvements    
  Dmitry Ganyushin       : Spin-Orbit,Spin-Spin,Magnetic field MRCI      
  Miquel Garcia-Rates    : C-PCM and meta-GGA Hessian, CCSD/C-PCM, Gaussian charge scheme 
  Tiago L. C. Gouveia    : GS-ROHF, GS-ROCIS                             
  Yang Guo               : DLPNO-NEVPT2, F12-NEVPT2, CIM, IAO-localization        
  Andreas Hansen         : Spin unrestricted coupled pair/coupled cluster methods 
  Ingolf Harden          : AUTO-CI MPn and infrastructure                
  Benjamin Helmich-Paris : MC-RPA, TRAH-(SCF,CASSCF), AVAS, COSX integrals, SCF dyn. polar., MC-PDFT, srDFT 
  Lee Huntington         : MR-EOM, pCC                                   
  Robert Izsak           : Overlap fitted RIJCOSX, COSX-SCS-MP3, EOM     
  Riya Kayal             : Wick's Theorem for AUTO-CI, AUTO-CI UHF-CCSDT 
  Emily Kempfer          : AUTO-CI RHF CISDT and CCSDT, approximate NEVPT4
  Christian Kollmar      : KDIIS, OOCD, Brueckner-CCSD(T), CCSD density, CASPT2, CASPT2-K, improved NEVPT2 
  Axel Koslowski         : Symmetry handling                             
  Simone Kossmann        : meta-GGA functionals, TD-DFT gradient, OOMP2, (MP2 Hessian; deprecated post 5.0) 
  Lucas Lang             : DCDCAS, Hyperfine gauge corrections, ICE-SOC+SSC
  Marvin Lechner         : AUTO-CI (C++ implementation), FIC-MRCC        
  Spencer Leger          : CASSCF response                               
  Dagmar Lenk            : GEPOL surface, SMD, ORCA-2-JSON               
  Dimitrios Liakos       : Extrapolation schemes; Compound Job, Property file
  Dimitrios Manganas     : Further ROCIS development; embedding schemes. LFT, Crystal Embedding 
  Dimitrios Pantazis     : SARC Basis sets                               
  Anastasios Papadopoulos: AUTO-CI, single reference methods and gradients 
  Taras Petrenko         : pre 6.0 DFT Hessian and TD-DFT gradient,  ECA, NRVS 
  Petra Pikulova         : Analytic Raman intensities                    
  Peter Pinski           : DLPNO-MP2, DLPNO-MP2 Gradient                 
  Shashank Vittal Rao    : ES-AILFT, MagRelax                            
  Christoph Reimann      : Effective Core Potentials                     
  Marius Retegan         : Local ZFS, SOC                                
  Christoph Riplinger    : Optimizer, TS searches, QM/MM, DLPNO-CCSD(T), (RO)-DLPNO pert. Triples 
  Michael Roemelt        : Original ROCIS implementation, recursive CI coupling coefficients
  Masaaki Saitow         : Open-shell DLPNO-CCSD energy and density      
  Barbara Sandhoefer     : DKH picture change effects                    
  Yorick L. A. Schmerwitz: GMF and freeze-and-release deltaSCF, NEB S-IDPP initial path                    
  Kantharuban Sivalingam : CASSCF convergence/infrastructure, NEVPT2, NEVPT3, NEVPT4(SD), FIC-MRCI and CEPA variants
  Bernardo de Souza      : ESD, SOC TD-DFT                               
  Georgi L. Stoychev     : AutoAux, RI-MP2 NMR, DLPNO-MP2 response, X2C  
  Van Anh Tran           : RI-MP2 g-tensors                              
  Willem Van den Heuvel  : Paramagnetic NMR                              
  Zikuan Wang            : NOTCH, Electric field optimization            
  Frank Wennmohs         : Technical directorship and infrastructure     
  Hang Xu                : AUTO-CI-Response properties                   
                                                                         
[FACCTs GmbH]                                                            
  Markus Bursch, Nicolas Foglia, Miquel Garcia-Rates, Ingolf Harden, Hagen Neugebauer, Anastasios Papadopoulos, 
  Christoph Riplinger, Bernardo de Souza, Georgi L. Stoychev                                                    
                                                                 
  APM, various basis sets, CI-OPT, improved COSX, DLPNO-Multilevel,           
  DOCKER, DRACO, updates on ESD, Fragmentator, GOAT, IRC, LR-CPCM, L-BFGS, MBIS, meta-GGA TD-DFT gradient, ML-optimized integration grids, 
  MM, NACMEs, nearIR, NEB, NEB-TS, NL-DFT gradient (VV10), 2- and 3-layer-ONIOM, interface openCOSMO-RS, QMMM,   
  Crystal-QMMM, RESP, rigid body optimization, SF, symmetry and pop. for TD-DFT, various functionals, SOLVATOR                                   
                                                                         
[Other institutions]                                                     
  V. Asgeirsson          : NEB                                           
  Christoph Bannwarth    : sTDA-DFT, sTD-DFT, PBEh-3c, B97-3c, D3        
  Giovanni Bistoni       : ETS/NOCV, ADLD/ADEX, COVALED                  
  Martin Brehm           : Molecular dynamics                            
  Ronald Cardenas        : ETS/NOCV                                      
  Martina Colucci        : COVALED                                       
  Sebastian Ehlert       : rSCAN, r2SCAN, r2SCAN-3c, D4, dhf basis sets  
  Marvin Friede          : D4 for Fr, Ra, Ac-Lr                          
  Lars Goerigk           : TD-DFT with DH, B97 family of functionals     
  Stefan Grimme          : VdW corrections, initial TS optimization, DFT functionals, gCP, sTDA/sTD-DF 
  Waldemar Hujo          : DFT-NL                                        
  H. Jonsson             : NEB                                           
  Holger Kruse           : gCP                                           
  Marcel Mueller         : wB97X-3c, vDZP basis set                      
  Hagen Neugebauer       : wr2SCAN, Native XTB                           
  Gianluca Regni         : ADLD/ADEX                                     
  Tobias Risthaus        : pre 6.0 range-separated hybrid DFT and stability analysis
  Lukas Wittmann         : regularized MP2, r2SCAN double-hybrids, wr2SCAN        
                                                                         
We gratefully acknowledge several colleagues who have allowed us to      
interface, adapt or use parts of their codes:                            
  Ed Valeev, F. Pavosevic, A. Kumar             : LibInt (2-el integral package), F12 methods 
  Garnet Chan, S. Sharma, J. Yang, R. Olivares  : DMRG                   
  Ulf Ekstrom                                   : XCFun DFT Library      
  Mihaly Kallay                                 : mrcc  (arbitrary order and MRCC methods)
  Frank Weinhold                                : gennbo (NPA and NBO analysis)           
  Simon Mueller                                 : openCOSMO-RS                            
  Christopher J. Cramer and Donald G. Truhlar   : smd solvation model                     
  S Lehtola, MJT Oliveira, MAL Marques          : LibXC Library                           
  Liviu Ungur et al                             : ANISO software                          


 Your calculation uses the libint2 library for the computation of 2-el integrals
 For citations please refer to: http://libint.valeyev.net

 Your ORCA version has been built with support for libXC version: 7.0.0
 For citations please refer to: https://libxc.gitlab.io

 This ORCA versions uses:
   CBLAS   interface :  Fast vector & matrix operations
   LAPACKE interface :  Fast linear algebra routines
   SCALAPACK package :  Parallel linear algebra routines
   Shared memory     :  Shared parallel matrices
   BLAS/LAPACK       :  OpenBLAS 0.3.29  USE64BITINT DYNAMIC_ARCH NO_AFFINITY Cooperlake SINGLE_THREADED
        Core in use  :  Cooperlake
   Copyright (c) 2011-2014, The OpenBLAS Project


  ***********************************
  * Starting time: Thu Apr 23 08:11:42 2026
  * Host name:     DESKTOP-DC1WS01
  * Process ID:    388338
  * Working dir.:  /mnt/work-disk/work/test/ethane-scan.res
  ***********************************

NOTE: MaxCore=10000 MB was set to SCF,MP2,MDCI,CIPSI,MRCI,RASCI and CIS
      => If you want to overwrite this, your respective input block should be placed after the MaxCore statement
Your calculation utilizes the geometrical counterpoise correction gCP
Please cite in your paper:
H.Kruse, S. Grimme J.Chem.Phys., 136, (2012), 154101 
   

Your calculation utilizes the atom-pairwise dispersion correction
based on EEQ partial charges (D4)


================================================================================

----- Orbital basis set information -----
Your calculation utilizes the basis: def2-mTZVPP
   Stefan Grimme, Andreas Hansen, Sebastian Ehlert, and Jan-Michael Mewes 
   J. Chem. Phys. 154, 064103 (2021). DOI: 10.1063/5.0040021

----- AuxJ basis set information -----
Your calculation utilizes the basis: def2-mTZVPP/J
   Stefan Grimme, Andreas Hansen, Sebastian Ehlert, and Jan-Michael Mewes 
   J. Chem. Phys. 154, 000000 (2021). DOI: 10.1063/5.0040021

================================================================================
                                        WARNINGS
                       Please study these warnings very carefully!
================================================================================



WARNING: SCAN, rSCAN, or r2SCAN functional requested.
  ===> : libXC variant has now been activated.



WARNING: Geometry Optimization
  ===> : Switching off AutoStart
         For restart on a previous wavefunction, please use MOREAD

================================================================================
                                       INPUT FILE
================================================================================
NAME = ethane-scan.inp
|  1> # Generated by MoleditPy ORCA Input Generator Pro Plugin
|  2> %pal nprocs 16 end
|  3> %maxcore 10000
|  4> 
|  5> ! r2SCAN-3c Opt
|  6> 
|  7> %geom
|  8>   Scan
|  9>     D 2 0 1 5 = -60.000, 60, 5
| 10>   end
| 11> end
| 12> 
| 13> * xyz 0 1
| 14>   C       -0.755815     0.007100    -0.016504
| 15>   C        0.755816    -0.007100     0.016504
| 16>   H       -1.163351    -0.100381     0.993141
| 17>   H       -1.122263     0.948089    -0.437543
| 18>   H       -1.134621    -0.815581    -0.630281
| 19>   H        1.134621     0.815583     0.630279
| 20>   H        1.163351     0.100379    -0.993141
| 21>   H        1.122263    -0.948088     0.437545
| 22> *
| 23> 
| 24>                          ****END OF INPUT****
================================================================================

                       ******************************
                       *    Relaxed Surface Scan    *
                       ******************************

        Dihedral (  5,   1,   0,   2):   range= -60.00000000 ..  60.00000000  steps =    5

There is 1 parameter to be scanned.
There will be    5 constrained geometry optimizations.


         *************************************************************
         *               RELAXED SURFACE SCAN STEP   1               *
         *                                                           *
         *   Dihedral (  5,   1,   0,   2)  : -60.00000000           *
         *************************************************************

Geometry optimization settings:
Update method            Update   .... BFGS
Choice of coordinates    CoordSys .... (2022) Redundant Internals
Initial Hessian          InHess   .... Almloef's Model
Max. no of cycles        MaxIter  .... 50

Convergence Tolerances:
Energy Change            TolE     ....  5.0000e-06 Eh
Max. Gradient            TolMAXG  ....  3.0000e-04 Eh/bohr
RMS Gradient             TolRMSG  ....  1.0000e-04 Eh/bohr
Max. Displacement        TolMAXD  ....  4.0000e-03 bohr
RMS Displacement         TolRMSD  ....  2.0000e-03 bohr
Strict Convergence                .... False

------------------------------------------------------------------------------
                        ORCA OPTIMIZATION COORDINATE SETUP
------------------------------------------------------------------------------

The optimization will be done in redundant internal coordinates (2022)
Making redundant internal coordinates   ...  (2022 redundants) done
Evaluating the initial hessian          ...  (Almloef) done
Evaluating the coordinates              ...  done
Calculating the B-matrix                .... done
Calculating the G-matrix                .... done
The number of degrees of freedom        ....   25
Storing new coordinates                 .... done

    -----------------------------------------------------------------
                    Redundant Internal Coordinates


    -----------------------------------------------------------------
         Definition                    Initial Value    Approx d2E/dq
    -----------------------------------------------------------------
      1. B(C   1,C   0)                  1.5121         0.399027   
      2. B(H   2,C   0)                  1.0941         0.354737   
      3. B(H   3,C   0)                  1.0941         0.354739   
      4. B(H   4,C   0)                  1.0941         0.354737   
      5. B(H   5,C   1)                  1.0941         0.354737   
      6. B(H   6,C   1)                  1.0941         0.354738   
      7. B(H   7,C   1)                  1.0941         0.354739   
      8. A(H   2,C   0,H   3)          108.3525         0.289473   
      9. A(H   3,C   0,H   4)          108.3525         0.289473   
     10. A(H   2,C   0,H   4)          108.3526         0.289473   
     11. A(C   1,C   0,H   3)          110.5680         0.327046   
     12. A(C   1,C   0,H   2)          110.5679         0.327046   
     13. A(C   1,C   0,H   4)          110.5680         0.327046   
     14. A(C   0,C   1,H   5)          110.5679         0.327046   
     15. A(C   0,C   1,H   6)          110.5679         0.327046   
     16. A(H   5,C   1,H   6)          108.3526         0.289473   
     17. A(C   0,C   1,H   7)          110.5680         0.327046   
     18. A(H   5,C   1,H   7)          108.3526         0.289473   
     19. A(H   6,C   1,H   7)          108.3526         0.289473   
     20. D(H   5,C   1,C   0,H   4)    179.9999         0.012635   
     21. D(H   6,C   1,C   0,H   2)    180.0000         0.012635   
     22. D(H   6,C   1,C   0,H   3)    -60.0001         0.012635   
     23. D(H   6,C   1,C   0,H   4)     59.9999         0.012635   
     24. D(H   5,C   1,C   0,H   2)    -60.0000         0.012635 C 
     25. D(H   5,C   1,C   0,H   3)     59.9999         0.012635   
    -----------------------------------------------------------------

Number of atoms                         .... 8
Number of degrees of freedom            .... 25


         *************************************************************
         *                GEOMETRY OPTIMIZATION CYCLE   1            *
         *************************************************************
---------------------------------
CARTESIAN COORDINATES (ANGSTROEM)
---------------------------------
  C     -0.755815    0.007099   -0.016504
  C      0.755816   -0.007100    0.016504
  H     -1.163351   -0.100380    0.993141
  H     -1.122263    0.948088   -0.437543
  H     -1.134621   -0.815582   -0.630281
  H      1.134621    0.815583    0.630280
  H      1.163351    0.100379   -0.993141
  H      1.122263   -0.948088    0.437544

----------------------------
CARTESIAN COORDINATES (A.U.)
----------------------------
  NO LB      ZA    FRAG     MASS         X           Y           Z
   0 C     6.0000    0    12.011   -1.428283    0.013416   -0.031188
   1 C     6.0000    0    12.011    1.428285   -0.013416    0.031188
   2 H     1.0000    0     1.008   -2.198415   -0.189690    1.876765
   3 H     1.0000    0     1.008   -2.120769    1.791628   -0.826837
   4 H     1.0000    0     1.008   -2.144124   -1.541226   -1.191058
   5 H     1.0000    0     1.008    2.144123    1.541228    1.191057
   6 H     1.0000    0     1.008    2.198415    0.189689   -1.876765
   7 H     1.0000    0     1.008    2.120770   -1.791627    0.826839

--------------------------------
INTERNAL COORDINATES (ANGSTROEM)
--------------------------------
 C      0   0   0     0.000000000000     0.00000000     0.00000000
 C      1   0   0     1.512058017480     0.00000000     0.00000000
 H      1   2   0     1.094084449520   110.56792737     0.00000000
 H      1   2   3     1.094083303202   110.56803856   120.00003238
 H      1   2   3     1.094084191973   110.56796627   240.00005833
 H      2   1   3     1.094084227626   110.56790616   299.99978665
 H      2   1   3     1.094083880555   110.56788368   179.99988841
 H      2   1   3     1.094082877863   110.56799292    59.99984181

---------------------------
INTERNAL COORDINATES (A.U.)
---------------------------
 C      0   0   0     0.000000000000     0.00000000     0.00000000
 C      1   0   0     2.857375551637     0.00000000     0.00000000
 H      1   2   0     2.067519976975   110.56792737     0.00000000
 H      1   2   3     2.067517810748   110.56803856   120.00003238
 H      1   2   3     2.067519490282   110.56796627   240.00005833
 H      2   1   3     2.067519557655   110.56790616   299.99978665
 H      2   1   3     2.067518901787   110.56788368   179.99988841
 H      2   1   3     2.067517006974   110.56799292    59.99984181

---------------------
BASIS SET INFORMATION
---------------------
There are 2 groups of distinct atoms

 Group   1 Type C   : 11s6p1d contracted to 5s3p1d pattern {62111/411/1}
 Group   2 Type H   : 4s1p contracted to 2s1p pattern {31/1}

Atom   0C    basis set group =>   1
Atom   1C    basis set group =>   1
Atom   2H    basis set group =>   2
Atom   3H    basis set group =>   2
Atom   4H    basis set group =>   2
Atom   5H    basis set group =>   2
Atom   6H    basis set group =>   2
Atom   7H    basis set group =>   2
---------------------------------
AUXILIARY/J BASIS SET INFORMATION
---------------------------------
There are 2 groups of distinct atoms

 Group   1 Type C   : 8s3p3d contracted to 6s3p3d pattern {311111/111/111}
 Group   2 Type H   : 5s2p1d contracted to 3s1p1d pattern {311/2/1}

Atom   0C    basis set group =>   1
Atom   1C    basis set group =>   1
Atom   2H    basis set group =>   2
Atom   3H    basis set group =>   2
Atom   4H    basis set group =>   2
Atom   5H    basis set group =>   2
Atom   6H    basis set group =>   2
Atom   7H    basis set group =>   2


           ************************************************************
           *        Program running with 16 parallel MPI-processes    *
           *              working on a common directory               *
           ************************************************************
------------------------------------------------------------------------------
                             ORCA STARTUP CALCULATIONS
                           -- RI-GTO INTEGRALS CHOSEN --
------------------------------------------------------------------------------
------------------------------------------------------------------------------
                   ___                                                        
                  /   \      - P O W E R E D   B Y -                         
                 /     \                                                     
                 |  |  |   _    _      __       _____    __    __             
                 |  |  |  | |  | |    /  \     |  _  \  |  |  /  |          
                  \  \/   | |  | |   /    \    | | | |  |  | /  /          
                 / \  \   | |__| |  /  /\  \   | |_| |  |  |/  /          
                |  |  |   |  __  | /  /__\  \  |    /   |      \           
                |  |  |   | |  | | |   __   |  |    \   |  |\   \          
                \     /   | |  | | |  |  |  |  | |\  \  |  | \   \       
                 \___/    |_|  |_| |__|  |__|  |_| \__\ |__|  \__/        
                                                                              
                      - O R C A' S   B I G   F R I E N D -                    
                                      &                                       
                       - I N T E G R A L  F E E D E R -                       
                                                                              
 v1 FN, 2020, v2 2021, v3 2022-2024                                           
------------------------------------------------------------------------------


----------------------
SHARK INTEGRAL PACKAGE
----------------------

Number of atoms                             ...      8
Number of basis functions                   ...     68
Number of shells                            ...     36
Maximum angular momentum                    ...      2
Integral batch strategy                     ... SHARK/LIBINT Hybrid
RI-J (if used) integral strategy            ... SPLIT-RIJ (Revised 2003 algorithm where possible)
Printlevel                                  ...      1
Contraction scheme used                     ... SEGMENTED contraction
Prescreening option                         ... SCHWARTZ
   Thresh                                   ... 2.500e-11
   Tcut                                     ... 2.500e-12
   Tpresel                                  ... 2.500e-12 
Coulomb Range Separation                    ... NOT USED
Exchange Range Separation                   ... NOT USED
Multipole approximations                    ... NOT USED
Finite Nucleus Model                        ... NOT USED
CABS basis                                  ... NOT available
Auxiliary Coulomb fitting basis             ... AVAILABLE
   # of basis functions in Aux-J            ...    126
   # of shells in Aux-J                     ...     54
   Maximum angular momentum in Aux-J        ...      2
Auxiliary J/K fitting basis                 ... NOT available
Auxiliary Correlation fitting basis         ... NOT available
Auxiliary 'external' fitting basis          ... NOT available

Checking pre-screening integrals            ... done (  0.0 sec) Dimension = 36
   => SHARK Basis and OBASIS are compatible. Storing Pre-screening
Shell pair information
Shell pair cut-off parameter TPreSel        ...   2.5e-12
Total number of shell pairs                 ...       666
Shell pairs after pre-screening             ...       665
Total number of primitive shell pairs       ...      2273
Primitive shell pairs kept                  ...      1973
          la=0 lb=0:    252 shell pairs
          la=1 lb=0:    264 shell pairs
          la=1 lb=1:     78 shell pairs
          la=2 lb=0:     44 shell pairs
          la=2 lb=1:     24 shell pairs
          la=2 lb=2:      3 shell pairs

Checking whether 4 symmetric matrices of dimension 68 fit in memory
:Max Core in MB      =  10000.00
 MB in use           =      2.11
 MB left             =   9997.89
 MB needed           =      0.07
 Data fit in memory  = YES
Calculating RI/J V-Matrix + Cholesky decomp.... done (  0.0 sec)
Calculating Nuclear repulsion               ... done (  0.0 sec) ENN=     42.426887241837 Eh

Diagonalization of the overlap matrix:
Smallest eigenvalue                        ... 9.012e-04
Time for diagonalization                   ...    0.001 sec
Threshold for overlap eigenvalues          ... 1.000e-07
Number of eigenvalues below threshold      ... 0
Time for construction of square roots      ...    0.000 sec
Total time needed                          ...    0.003 sec

-------------------
DFT GRID GENERATION
-------------------

General Integration Accuracy     IntAcc      ... 4.388
Radial Grid Type                 RadialGrid  ... OptM3 with GC (2021)
Angular Grid (max. ang.)         AngularGrid ... 4 (Lebedev-302)
Angular grid pruning method      GridPruning ... 4 (adaptive)
Weight generation scheme         WeightScheme... mBecke (2022)
Basis function cutoff            BFCut       ... 1.0000e-11
Integration weight cutoff        WCut        ... 1.0000e-14
Partially contracted basis set               ... off
Rotationally invariant grid construction     ... off
Angular grids for H and He will be reduced by one unit

Total number of grid points                  ...    31674
Total number of batches                      ...      498
Average number of points per batch           ...       63
Average number of grid points per atom       ...     3959
Grids setup in   0.1 sec
Initializing property integral containers    ... done (  0.0 sec)

SHARK setup successfully completed in   0.2 seconds

Maximum memory used throughout the entire STARTUP-calculation: 7.9 MB


           ************************************************************
           *        Program running with 16 parallel MPI-processes    *
           *              working on a common directory               *
           ************************************************************
-------------------------------------------------------------------------------
                                 ORCA GUESS
                   Start orbitals & Density for SCF / CASSCF
-------------------------------------------------------------------------------

------------
SCF SETTINGS
------------
Hamiltonian:
 Density Functional     Method          .... DFT(GTOs)
  Functional kind                       .... Exchange
  Functional name                       .... Re-regularized SCAN exchange by Furness et al
  Functional family                     .... MGGA
  Functional refs                              
    [ 0] J. W. Furness, A. D. Kaplan, J. Ning, J. P. Perdew, and J. Sun.,  J. Phys. Chem. Lett. 11, 8208-8215 (2020), doi: 10.1021/acs.jpclett.0c02405
    [ 1] J. W. Furness, A. D. Kaplan, J. Ning, J. P. Perdew, and J. Sun.,  J. Phys. Chem. Lett. 11, 9248-9248 (2020), doi: 10.1021/acs.jpclett.0c03077
  Functional external parameters        .... 6
    Parameter  0 _c1        =  6.670000e-01 : c1 parameter        
    Parameter  1 _c2        =  8.000000e-01 : c2 parameter        
    Parameter  2 _d         =  1.240000e+00 : d parameter         
    Parameter  3 _k1        =  6.500000e-02 : k1 parameter        
    Parameter  4 _eta       =  1.000000e-03 : eta parameter       
    Parameter  5 _dp2       =  3.610000e-01 : dp2 parameter       
  Functional kind                       .... Correlation
  Functional name                       .... Re-regularized SCAN correlation by Furness et al
  Functional family                     .... MGGA
  Functional refs                              
    [ 0] J. W. Furness, A. D. Kaplan, J. Ning, J. P. Perdew, and J. Sun.,  J. Phys. Chem. Lett. 11, 8208-8215 (2020), doi: 10.1021/acs.jpclett.0c02405
    [ 1] J. W. Furness, A. D. Kaplan, J. Ning, J. P. Perdew, and J. Sun.,  J. Phys. Chem. Lett. 11, 9248-9248 (2020), doi: 10.1021/acs.jpclett.0c03077
  Functional external parameters        .... 1
    Parameter  0 _eta       =  1.000000e-03 : Regularization parameter
 Gradients option       PostSCFGGA      .... off
 RI-approximation to the Coulomb term is turned on
   Number of AuxJ basis functions       .... 126


General Settings:
 Integral files         IntName         .... ethane-scan
 Hartree-Fock type      HFTyp           .... RHF
 Total Charge           Charge          ....    0
 Multiplicity           Mult            ....    1
 Number of Electrons    NEL             ....   18
 Basis Dimension        Dim             ....   68
 Nuclear Repulsion      ENuc            ....     42.4268872418 Eh

Convergence Acceleration:
 AO-DIIS                CNVDIIS         .... on
   Start iteration      DIISMaxIt       ....    12
   Startup error        DIISStart       ....  0.200000
   # of expansion vecs  DIISMaxEq       ....     5
   Bias factor          DIISBfac        ....   1.050
   Max. coefficient     DIISMaxC        ....  10.000
 MO-DIIS                CNVKDIIS        .... off
 Trust-Rad. Augm. Hess. CNVTRAH         .... auto
   Auto Start mean grad. ratio tolernc. ....  1.125000
   Auto Start start iteration           ....    50
   Auto Start num. interpolation iter.  ....    10
   Max. Number of Micro iterations      ....    24
   Max. Number of Macro iterations      .... Maxiter - #DIIS iter
   Number of Davidson start vectors     ....     2
   Converg. threshold    (grad. norm)   ....   1.000e-05
   Grad. Scal. Fac. for Micro threshold ....   0.100
   Minimum threshold for Micro iter.    ....   1.000e-02
   NR start threshold (gradient norm)   ....   1.000e-04
   Initial trust radius                 ....   0.400
   Minimum AH scaling param. (alpha)    ....   1.000
   Maximum AH scaling param. (alpha)    .... 1000.000
   Quad. conv. algorithm                .... NR
   White noise on init. David. guess    .... on
   Maximum white noise                  ....   0.010
   Pseudo random numbers                .... off
   Inactive MOs                         .... canonical
   Orbital update algorithm             .... Taylor
   Preconditioner                       .... Diag
   Full preconditioner red. dimension   ....   250
   COSX micro iterations for RIJONX calc.... off
 SOSCF                 CNVSOSCF           .... on
   Start iteration     SOSCFMaxIt         ....   150
   Startup grad/error  SOSCFStart         ....  0.003300
   Hessian update      SOSCFHessUp        .... L-BFGS
   Autom. constraints  SOSCFAutoConstrain .... off
 Level Shifting         CNVShift        .... on
   Level shift para.    LevelShift      ....    0.2500
   Turn off err/grad.   ShiftErr        ....    0.0010
 Zerner damping         CNVZerner       .... off
 Static damping         CNVDamp         .... on
   Fraction old density DampFac         ....    0.7000
   Max. Damping (<1)    DampMax         ....    0.9800
   Min. Damping (>=0)   DampMin         ....    0.0000
   Turn off err/grad.   DampErr         ....    0.1000

SCF Procedure:
 Maximum # iterations   MaxIter         ....   125
 SCF integral mode      SCFMode         .... Direct
   Integral package                     .... SHARK and LIBINT hybrid scheme
 Reset frequency        DirectResetFreq ....    20
 Integral Threshold     Thresh          ....  2.500e-11 Eh
 Primitive CutOff       TCut            ....  2.500e-12 Eh

Convergence Tolerance:
 Convergence Check Mode ConvCheckMode   .... Total+1el-Energy
 Convergence forced     ConvForced      .... 0
 Energy Change          TolE            ....  1.000e-08 Eh
 1-El. energy change                    ....  1.000e-05 Eh
 Orbital Gradient       TolG            ....  1.000e-05
 Orbital Rotation angle TolX            ....  1.000e-05
 DIIS Error             TolErr          ....  5.000e-07

------------------------------
INITIAL GUESS: MODEL POTENTIAL
------------------------------
Loading Hartree-Fock densities                     ... done
Calculating cut-offs                               ... done
Initializing the effective Hamiltonian             ... done
Setting up the integral package (SHARK)            ... done
Starting the Coulomb interaction                   ... done (   0.0 sec)
Making the grid                                    ... done (   0.0 sec)
Mapping shells                                     ... done
Starting the XC term evaluation                    ... done (   0.0 sec)
  promolecular density results
     # of electrons  =     17.996973459
     EX              =    -11.977341646
     EC              =     -0.555529461
     EX+EC           =    -12.532871107
Transforming the Hamiltonian                       ... done (   0.0 sec)
Diagonalizing the Hamiltonian                      ... done (   0.0 sec)
Back transforming the eigenvectors                 ... done (   0.0 sec)
Now organizing SCF variables                       ... done
                      ------------------
                      INITIAL GUESS DONE (   0.1 sec)
                      ------------------
             **** ENERGY FILE WAS UPDATED (ethane-scan.en.tmp) ****
Finished Guess after   0.2 sec
Maximum memory used throughout the entire GUESS-calculation: 4.3 MB


           ************************************************************
           *        Program running with 16 parallel MPI-processes    *
           *              working on a common directory               *
           ************************************************************

-------------------------------------------------------------------------------------------
                                      ORCA LEAN-SCF
                              memory conserving SCF solver
-------------------------------------------------------------------------------------------

----------------------------------------D-I-I-S--------------------------------------------
Iteration    Energy (Eh)           Delta-E    RMSDP     MaxDP     DIISErr   Damp  Time(sec)
-------------------------------------------------------------------------------------------
               ***  Starting incremental Fock matrix formation  ***
    1    -79.6835104631356614     0.00e+00  1.30e-02  3.54e-02  1.91e-01  0.700   0.1
    2    -79.7372814832158667    -5.38e-02  9.42e-03  2.24e-02  9.60e-02  0.700   0.1
                               ***Turning on AO-DIIS***
    3    -79.7573933855285873    -2.01e-02  3.61e-03  7.38e-03  3.23e-02  0.700   0.1
    4    -79.7688764726510442    -1.15e-02  5.25e-03  9.66e-03  1.38e-02  0.000   0.1
    5    -79.7943702079513457    -2.55e-02  1.30e-03  3.02e-03  8.18e-03  0.000   0.1
                              *** Initializing SOSCF ***
---------------------------------------S-O-S-C-F--------------------------------------
Iteration    Energy (Eh)           Delta-E    RMSDP     MaxDP     MaxGrad    Time(sec)
--------------------------------------------------------------------------------------
    6    -79.7946037039529301    -2.33e-04  4.08e-04  8.50e-04  2.01e-03     0.1
               *** Restarting incremental Fock matrix formation ***
    7    -79.7946189866122495    -1.53e-05  2.27e-04  4.53e-04  2.41e-04     0.1
    8    -79.7946189448576035     4.18e-08  7.32e-05  1.90e-04  2.72e-04     0.1
    9    -79.7946198148092094    -8.70e-07  1.67e-05  3.98e-05  2.18e-05     0.1
   10    -79.7946198211095066    -6.30e-09  4.33e-06  1.28e-05  1.01e-05     0.1
                 **** Energy Check signals convergence ****

               *****************************************************
               *                     SUCCESS                       *
               *           SCF CONVERGED AFTER  10 CYCLES          *
               *****************************************************

             **** ENERGY FILE WAS UPDATED (ethane-scan.en.tmp) ****

----------------
TOTAL SCF ENERGY
----------------

Total Energy       :        -79.79461982285679 Eh           -2171.32199 eV

Components:
Nuclear Repulsion  :         42.42688724183672 Eh            1154.49430 eV
Electronic Energy  :       -122.22150706469351 Eh           -3325.81629 eV
One Electron Energy:       -189.71462522074995 Eh           -5162.39740 eV
Two Electron Energy:         67.49311815605644 Eh            1836.58112 eV

Virial components:
Potential Energy   :       -159.16117869227296 Eh           -4330.99586 eV
Kinetic Energy     :         79.36655886941617 Eh            2159.67386 eV
Virial Ratio       :          2.00539346746965

DFT components:
N(Alpha)           :        8.999998770591 electrons
N(Beta)            :        8.999998770591 electrons
N(Total)           :       17.999997541182 electrons
E(X)               :      -12.518511300766 Eh       
E(C)               :       -0.529222258717 Eh       
E(XC)              :      -13.047733559484 Eh       

---------------
SCF CONVERGENCE
---------------

  Last Energy change         ...    6.3003e-09  Tolerance :   1.0000e-08
  Last MAX-Density change    ...    1.2804e-05  Tolerance :   1.0000e-07
  Last RMS-Density change    ...    4.3274e-06  Tolerance :   5.0000e-09
  Last DIIS Error            ...    2.0116e-03  Tolerance :   5.0000e-07
  Last Orbital Gradient      ...    1.0141e-05  Tolerance :   1.0000e-05
  Last Orbital Rotation      ...    1.5006e-05  Tolerance :   1.0000e-05


----------------
ORBITAL ENERGIES
----------------

  NO   OCC          E(Eh)            E(eV) 
   0   2.0000     -10.016423      -272.5607 
   1   2.0000     -10.016275      -272.5567 
   2   2.0000      -0.720430       -19.6039 
   3   2.0000      -0.577167       -15.7055 
   4   2.0000      -0.403616       -10.9829 
   5   2.0000      -0.403612       -10.9829 
   6   2.0000      -0.335265        -9.1230 
   7   2.0000      -0.308393        -8.3918 
   8   2.0000      -0.308392        -8.3918 
   9   0.0000       0.107027         2.9123 
  10   0.0000       0.130184         3.5425 
  11   0.0000       0.181533         4.9398 
  12   0.0000       0.181536         4.9398 
  13   0.0000       0.190423         5.1817 
  14   0.0000       0.190432         5.1819 
  15   0.0000       0.210048         5.7157 
  16   0.0000       0.220105         5.9894 
  17   0.0000       0.228989         6.2311 
  18   0.0000       0.229024         6.2320 
  19   0.0000       0.259928         7.0730 
*Only the first 10 virtual orbitals were printed.

                    ********************************
                    * MULLIKEN POPULATION ANALYSIS *
                    ********************************

-----------------------
MULLIKEN ATOMIC CHARGES
-----------------------
   0 C :   -0.410273
   1 C :   -0.410272
   2 H :    0.136761
   3 H :    0.136757
   4 H :    0.136754
   5 H :    0.136754
   6 H :    0.136762
   7 H :    0.136757
Sum of atomic charges:   -0.0000000

--------------------------------
MULLIKEN REDUCED ORBITAL CHARGES
--------------------------------
  0 C s       :     3.276243  s :     3.276243
      pz      :     1.084025  p :     3.105363
      px      :     0.937262
      py      :     1.084076
      dz2     :     0.004909  d :     0.028667
      dxz     :     0.006315
      dyz     :     0.004323
      dx2y2   :     0.007173
      dxy     :     0.005947

  1 C s       :     3.276243  s :     3.276243
      pz      :     1.084025  p :     3.105362
      px      :     0.937262
      py      :     1.084076
      dz2     :     0.004909  d :     0.028667
      dxz     :     0.006315
      dyz     :     0.004323
      dx2y2   :     0.007173
      dxy     :     0.005947

  2 H s       :     0.845273  s :     0.845273
      pz      :     0.009634  p :     0.017966
      px      :     0.004614
      py      :     0.003718

  3 H s       :     0.845277  s :     0.845277
      pz      :     0.004695  p :     0.017966
      px      :     0.004414
      py      :     0.008857

  4 H s       :     0.845280  s :     0.845280
      pz      :     0.005868  p :     0.017966
      px      :     0.004472
      py      :     0.007626

  5 H s       :     0.845280  s :     0.845280
      pz      :     0.005868  p :     0.017966
      px      :     0.004472
      py      :     0.007626

  6 H s       :     0.845273  s :     0.845273
      pz      :     0.009634  p :     0.017966
      px      :     0.004614
      py      :     0.003718

  7 H s       :     0.845277  s :     0.845277
      pz      :     0.004695  p :     0.017966
      px      :     0.004414
      py      :     0.008857



                     *******************************
                     * LOEWDIN POPULATION ANALYSIS *
                     *******************************

----------------------
LOEWDIN ATOMIC CHARGES
----------------------
   0 C :   -0.438524
   1 C :   -0.438524
   2 H :    0.146177
   3 H :    0.146175
   4 H :    0.146173
   5 H :    0.146173
   6 H :    0.146177
   7 H :    0.146175

-------------------------------
LOEWDIN REDUCED ORBITAL CHARGES
-------------------------------
  0 C s       :     2.980809  s :     2.980809
      pz      :     1.156157  p :     3.392996
      px      :     1.080654
      py      :     1.156184
      dz2     :     0.011880  d :     0.064719
      dxz     :     0.013152
      dyz     :     0.010895
      dx2y2   :     0.016543
      dxy     :     0.012248

  1 C s       :     2.980809  s :     2.980809
      pz      :     1.156157  p :     3.392996
      px      :     1.080655
      py      :     1.156184
      dz2     :     0.011880  d :     0.064719
      dxz     :     0.013152
      dyz     :     0.010895
      dx2y2   :     0.016543
      dxy     :     0.012248

  2 H s       :     0.811462  s :     0.811462
      pz      :     0.023965  p :     0.042361
      px      :     0.010365
      py      :     0.008030

  3 H s       :     0.811465  s :     0.811465
      pz      :     0.010652  p :     0.042360
      px      :     0.009857
      py      :     0.021852

  4 H s       :     0.811467  s :     0.811467
      pz      :     0.013807  p :     0.042361
      px      :     0.010004
      py      :     0.018550

  5 H s       :     0.811467  s :     0.811467
      pz      :     0.013807  p :     0.042361
      px      :     0.010004
      py      :     0.018550

  6 H s       :     0.811462  s :     0.811462
      pz      :     0.023966  p :     0.042361
      px      :     0.010365
      py      :     0.008030

  7 H s       :     0.811465  s :     0.811465
      pz      :     0.010652  p :     0.042360
      px      :     0.009857
      py      :     0.021852



                      *****************************
                      * MAYER POPULATION ANALYSIS *
                      *****************************

  NA   - Mulliken gross atomic population
  ZA   - Total nuclear charge
  QA   - Mulliken gross atomic charge
  VA   - Mayer's total valence
  BVA  - Mayer's bonded valence
  FA   - Mayer's free valence

  ATOM       NA         ZA         QA         VA         BVA        FA
  0 C      6.4103     6.0000    -0.4103     3.7837     3.7837    -0.0000
  1 C      6.4103     6.0000    -0.4103     3.7837     3.7837    -0.0000
  2 H      0.8632     1.0000     0.1368     0.9639     0.9639    -0.0000
  3 H      0.8632     1.0000     0.1368     0.9639     0.9639    -0.0000
  4 H      0.8632     1.0000     0.1368     0.9639     0.9639    -0.0000
  5 H      0.8632     1.0000     0.1368     0.9639     0.9639     0.0000
  6 H      0.8632     1.0000     0.1368     0.9639     0.9639    -0.0000
  7 H      0.8632     1.0000     0.1368     0.9639     0.9639    -0.0000

  Mayer bond orders larger than 0.100000
B(  0-C ,  1-C ) :   0.9058 B(  0-C ,  2-H ) :   0.9758 B(  0-C ,  3-H ) :   0.9758 
B(  0-C ,  4-H ) :   0.9758 B(  1-C ,  5-H ) :   0.9758 B(  1-C ,  6-H ) :   0.9758 
B(  1-C ,  7-H ) :   0.9758 

-------
TIMINGS
-------

Total SCF time: 0 days 0 hours 0 min 0 sec 

Total time                  ....       0.985 sec
Sum of individual times     ....       0.883 sec  ( 89.7%)

SCF preparation             ....       0.185 sec  ( 18.8%)
Fock matrix formation       ....       0.538 sec  ( 54.6%)
  Startup                   ....       0.005 sec  (  0.9% of F)
  Split-RI-J                ....       0.094 sec  ( 17.5% of F)
  XC integration            ....       0.395 sec  ( 73.4% of F)
    XC Preparation          ....       0.000 sec  (  0.0% of XC)
    Basis function eval.    ....       0.043 sec  ( 10.8% of XC)
    Density eval.           ....       0.059 sec  ( 15.0% of XC)
    XC-Functional eval.     ....       0.061 sec  ( 15.5% of XC)
    XC-Potential eval.      ....       0.046 sec  ( 11.7% of XC)
Diagonalization             ....       0.000 sec  (  0.0%)
Density matrix formation    ....       0.028 sec  (  2.9%)
Total Energy calculation    ....       0.013 sec  (  1.3%)
Population analysis         ....       0.012 sec  (  1.3%)
Orbital Transformation      ....       0.013 sec  (  1.3%)
Orbital Orthonormalization  ....       0.000 sec  (  0.0%)
DIIS solution               ....       0.059 sec  (  6.0%)
SOSCF solution              ....       0.035 sec  (  3.6%)
Finished LeanSCF after   1.0 sec

Maximum memory used throughout the entire LEANSCF-calculation: 3.6 MB


-------------------------------------------------------------------------------
                          DFT DISPERSION CORRECTION                            
                                                                               
                                DFTD4 V3.4.0                                   
-------------------------------------------------------------------------------
The R2SCAN3C composite method is recognized
Using three-body term ABC
Active option DFTDOPT                   ...         5   

-------------------------   ----------------
Dispersion correction           -0.000883528
-------------------------   ----------------

------------------   -----------------
gCP correction             0.004000064
------------------   -----------------

-------------------------   --------------------
FINAL SINGLE POINT ENERGY       -79.791503285886
-------------------------   --------------------



           ************************************************************
           *        Program running with 16 parallel MPI-processes    *
           *              working on a common directory               *
           ************************************************************
------------------------------------------------------------------------------
                         ORCA SCF GRADIENT CALCULATION
------------------------------------------------------------------------------

Nuc. rep. gradient        (SHARK) ... done (  0.0 sec)
HCore & Overlap gradient  (SHARK) ... done (  0.0 sec)
Split-RIJ-J gradient      (SHARK) ... done (  0.0 sec)
XC gradient                       ... done (  0.1 sec)
Dispersion correction             ... done (  0.1 sec)

-------------------
DISPERSION GRADIENT
-------------------

   1   C   :   -0.000011749    0.000000110   -0.000000257
   2   C   :    0.000011749   -0.000000110    0.000000257
   3   H   :   -0.000004584   -0.000000002    0.000000310
   4   H   :   -0.000004567    0.000000421   -0.000000266
   5   H   :   -0.000004572   -0.000000290   -0.000000344
   6   H   :    0.000004572    0.000000290    0.000000344
   7   H   :    0.000004584    0.000000002   -0.000000310
   8   H   :    0.000004567   -0.000000421    0.000000266

Difference to translation invariance:
           :   -0.0000000000   -0.0000000000   -0.0000000000

Difference to rotation invariance:
           :    0.0000000000    0.0000000000   -0.0000000000

Norm of the Dispersion gradient    ...    0.0000200717
RMS gradient                       ...    0.0000040971
MAX gradient                       ...    0.0000117488
gCP correction                   ... done

------------------
CARTESIAN GRADIENT
------------------

   1   C   :    0.004276641   -0.000042737    0.000086611
   2   C   :   -0.004276152    0.000042412   -0.000086866
   3   H   :    0.002296174   -0.000067667    0.000479945
   4   H   :    0.002316368    0.000371804   -0.000116223
   5   H   :    0.002322780   -0.000367970   -0.000204204
   6   H   :   -0.002322876    0.000368047    0.000204191
   7   H   :   -0.002296375    0.000067725   -0.000479654
   8   H   :   -0.002316559   -0.000371614    0.000116200

Difference to translation invariance:
           :   -0.0000000000    0.0000000000   -0.0000000000

Difference to rotation invariance:
           :    0.0000228043   -0.0000227254    0.0000367055

Norm of the Cartesian gradient     ...    0.0083540292
RMS gradient                       ...    0.0017052591
MAX gradient                       ...    0.0042766407

-------
TIMINGS
-------

Total SCF gradient time     ....        0.269 sec

Densities                   ....       0.000 sec  (  0.1%)
One electron gradient       ....       0.023 sec  (  8.6%)
RI-J Coulomb gradient       ....       0.034 sec  ( 12.7%)
XC gradient                 ....       0.090 sec  ( 33.3%)

Maximum memory used throughout the entire SCFGRAD-calculation: 24.2 MB
------------------------------------------------------------------------------
                         ORCA GEOMETRY RELAXATION STEP
------------------------------------------------------------------------------

Reading the OPT-File                    .... done
Getting information on internals        .... done
Copying old internal coords+grads       .... done
Making the new internal coordinates     .... (2022 redundants) done
Validating the new internal coordinates .... (2022 redundants) done
Calculating the B-matrix                .... done
Calculating the G,G- and P matrices     .... done
Transforming gradient to internals      .... done
Projecting the internal gradient        .... done
Number of atoms                         ....   8
Number of internal coordinates          ....  25
Current Energy                          ....   -79.791503286 Eh
Current gradient norm                   ....     0.008354029 Eh/bohr
Maximum allowed component of the step   ....  0.300
Current trust radius                    ....  0.300
Evaluating the initial hessian          ....  (Almloef) done
Projecting the Hessian                  .... done
Forming the augmented Hessian           .... done
Diagonalizing the augmented Hessian     .... done
Last element of RFO vector              ....  0.999254550
Lowest eigenvalues of augmented Hessian:
 -0.000532268  0.051724598  0.118537042  0.134657327  0.289473447
Length of the computed step             ....  0.038633781
The final length of the internal step   ....  0.038633781
Converting the step to Cartesian space:
 Initial RMS(Int)=    0.0077267562
Transforming coordinates:
 Iter   0:  RMS(Cart)=    0.0151636952 RMS(Int)=    1.7771683409
Imposing constraints:
 Iter   0:  RMS(Cart)=    0.0000000074 RMS(Int)=    0.0000000359
CONVERGED
done
Storing new coordinates                 .... done

                                .--------------------.
          ----------------------|Geometry convergence|-------------------------
          Item                value                   Tolerance       Converged
          ---------------------------------------------------------------------
          RMS gradient        0.0027778320            0.0001000000      NO
          MAX gradient        0.0112151696            0.0003000000      NO
          RMS step            0.0077267562            0.0020000000      NO
          MAX step            0.0280688196            0.0040000000      NO
          -------------------------------------------------------------------------
          ........................................................
          Max(Bonds)      0.0149      Max(Angles)    0.45
          Max(Dihed)        0.00      Max(Improp)    0.00
          ---------------------------------------------------------------------

The optimization has not yet converged - more geometry cycles are needed


    ---------------------------------------------------------------------------
                         Redundant Internal Coordinates
                            (Angstroem and degrees)

        Definition                    Value    dE/dq     Step     New-Value
    ----------------------------------------------------------------------------
     1. B(C   1,C   0)                1.5121 -0.011215  0.0149    1.5269   
     2. B(H   2,C   0)                1.0941 -0.000405  0.0006    1.0947   
     3. B(H   3,C   0)                1.0941 -0.000411  0.0006    1.0947   
     4. B(H   4,C   0)                1.0941 -0.000414  0.0006    1.0947   
     5. B(H   5,C   1)                1.0941 -0.000414  0.0006    1.0947   
     6. B(H   6,C   1)                1.0941 -0.000406  0.0006    1.0947   
     7. B(H   7,C   1)                1.0941 -0.000411  0.0006    1.0947   
     8. A(H   2,C   0,H   3)          108.35  0.002386   -0.44    107.91   
     9. A(H   3,C   0,H   4)          108.35  0.002396   -0.45    107.91   
    10. A(H   2,C   0,H   4)          108.35  0.002395   -0.45    107.91   
    11. A(C   1,C   0,H   3)          110.57 -0.002298    0.43    111.00   
    12. A(C   1,C   0,H   2)          110.57 -0.002296    0.43    111.00   
    13. A(C   1,C   0,H   4)          110.57 -0.002309    0.43    111.00   
    14. A(C   0,C   1,H   5)          110.57 -0.002309    0.43    111.00   
    15. A(C   0,C   1,H   6)          110.57 -0.002297    0.43    111.00   
    16. A(H   5,C   1,H   6)          108.35  0.002395   -0.45    107.91   
    17. A(C   0,C   1,H   7)          110.57 -0.002298    0.43    111.00   
    18. A(H   5,C   1,H   7)          108.35  0.002398   -0.45    107.91   
    19. A(H   6,C   1,H   7)          108.35  0.002385   -0.44    107.91   
    20. D(H   5,C   1,C   0,H   4)    180.00  0.000001    0.00    180.00   
    21. D(H   6,C   1,C   0,H   2)    180.00  0.000001    0.00    180.00   
    22. D(H   6,C   1,C   0,H   3)    -60.00 -0.000002    0.00    -60.00   
    23. D(H   6,C   1,C   0,H   4)     60.00 -0.000000    0.00     60.00   
    24. D(H   5,C   1,C   0,H   2)    -60.00  0.000002   -0.00    -60.00 C 
    25. D(H   5,C   1,C   0,H   3)     60.00 -0.000001    0.00     60.00   
    ----------------------------------------------------------------------------

Geometry step timings:
Preparation and reading OPT file:      0.000 s ( 4.740 %)
Internal coordinates            :      0.000 s ( 2.338 %)
B/P matrices and projection     :      0.000 s (25.260 %)
Hessian update/contruction      :      0.000 s (19.286 %)
Making the step                 :      0.000 s (12.208 %)
Converting the step to Cartesian:      0.000 s ( 5.325 %)
Storing new data                :      0.000 s ( 4.286 %)
Checking convergence            :      0.000 s ( 2.403 %)
Final printing                  :      0.000 s (24.091 %)
Total time                      :      0.002 s

Time for energy+gradient        :      3.849 s
Time for complete geometry iter :      4.352 s

         *************************************************************
         *                GEOMETRY OPTIMIZATION CYCLE   2            *
         *************************************************************
---------------------------------
CARTESIAN COORDINATES (ANGSTROEM)
---------------------------------
  C     -0.763240    0.007167   -0.016668
  C      0.763240   -0.007167    0.016667
  H     -1.178537   -0.099995    0.990500
  H     -1.137551    0.946104   -0.436959
  H     -1.149909   -0.813569   -0.629245
  H      1.149908    0.813567    0.629248
  H      1.178538    0.100000   -0.990500
  H      1.137551   -0.946106    0.436956

----------------------------
CARTESIAN COORDINATES (A.U.)
----------------------------
  NO LB      ZA    FRAG     MASS         X           Y           Z
   0 C     6.0000    0    12.011   -1.442314    0.013543   -0.031498
   1 C     6.0000    0    12.011    1.442315   -0.013543    0.031496
   2 H     1.0000    0     1.008   -2.227112   -0.188963    1.871773
   3 H     1.0000    0     1.008   -2.149659    1.787878   -0.825732
   4 H     1.0000    0     1.008   -2.173013   -1.537423   -1.189100
   5 H     1.0000    0     1.008    2.173011    1.537418    1.189107
   6 H     1.0000    0     1.008    2.227114    0.188973   -1.871773
   7 H     1.0000    0     1.008    2.149660   -1.787880    0.825726

--------------------------------
INTERNAL COORDINATES (ANGSTROEM)
--------------------------------
 C      0   0   0     0.000000000000     0.00000000     0.00000000
 C      1   0   0     1.526911397064     0.00000000     0.00000000
 H      1   2   0     1.094687969182   110.99352173     0.00000000
 H      1   2   3     1.094694872289   110.99390948   120.00101867
 H      1   2   3     1.094701277319   110.99571131   240.00029039
 H      2   1   3     1.094701282109   110.99562784   299.99999801
 H      2   1   3     1.094687900922   110.99353858   180.00032177
 H      2   1   3     1.094694795016   110.99388506    59.99914242

---------------------------
INTERNAL COORDINATES (A.U.)
---------------------------
 C      0   0   0     0.000000000000     0.00000000     0.00000000
 C      1   0   0     2.885444371214     0.00000000     0.00000000
 H      1   2   0     2.068660463853   110.99352173     0.00000000
 H      1   2   3     2.068673508834   110.99390948   120.00101867
 H      1   2   3     2.068685612587   110.99571131   240.00029039
 H      2   1   3     2.068685621639   110.99562784   299.99999801
 H      2   1   3     2.068660334860   110.99353858   180.00032177
 H      2   1   3     2.068673362809   110.99388506    59.99914242



           ************************************************************
           *        Program running with 16 parallel MPI-processes    *
           *              working on a common directory               *
           ************************************************************
------------------------------------------------------------------------------
                   ___                                                        
                  /   \      - P O W E R E D   B Y -                         
                 /     \                                                     
                 |  |  |   _    _      __       _____    __    __             
                 |  |  |  | |  | |    /  \     |  _  \  |  |  /  |          
                  \  \/   | |  | |   /    \    | | | |  |  | /  /          
                 / \  \   | |__| |  /  /\  \   | |_| |  |  |/  /          
                |  |  |   |  __  | /  /__\  \  |    /   |      \           
                |  |  |   | |  | | |   __   |  |    \   |  |\   \          
                \     /   | |  | | |  |  |  |  | |\  \  |  | \   \       
                 \___/    |_|  |_| |__|  |__|  |_| \__\ |__|  \__/        
                                                                              
                      - O R C A' S   B I G   F R I E N D -                    
                                      &                                       
                       - I N T E G R A L  F E E D E R -                       
                                                                              
 v1 FN, 2020, v2 2021, v3 2022-2024                                           
------------------------------------------------------------------------------


----------------------
SHARK INTEGRAL PACKAGE
----------------------

Number of atoms                             ...      8
Number of basis functions                   ...     68
Number of shells                            ...     36
Maximum angular momentum                    ...      2
Integral batch strategy                     ... SHARK/LIBINT Hybrid
RI-J (if used) integral strategy            ... SPLIT-RIJ (Revised 2003 algorithm where possible)
Printlevel                                  ...      1
Contraction scheme used                     ... SEGMENTED contraction
Prescreening option                         ... SCHWARTZ
   Thresh                                   ... 2.500e-11
   Tcut                                     ... 2.500e-12
   Tpresel                                  ... 2.500e-12 
Coulomb Range Separation                    ... NOT USED
Exchange Range Separation                   ... NOT USED
Multipole approximations                    ... NOT USED
Finite Nucleus Model                        ... NOT USED
CABS basis                                  ... NOT available
Auxiliary Coulomb fitting basis             ... AVAILABLE
   # of basis functions in Aux-J            ...    126
   # of shells in Aux-J                     ...     54
   Maximum angular momentum in Aux-J        ...      2
Auxiliary J/K fitting basis                 ... NOT available
Auxiliary Correlation fitting basis         ... NOT available
Auxiliary 'external' fitting basis          ... NOT available

Checking pre-screening integrals            ... done (  0.0 sec) Dimension = 36
   => SHARK Basis and OBASIS are compatible. Storing Pre-screening
Shell pair information
Shell pair cut-off parameter TPreSel        ...   2.5e-12
Total number of shell pairs                 ...       666
Shell pairs after pre-screening             ...       665
Total number of primitive shell pairs       ...      2273
Primitive shell pairs kept                  ...      1973
          la=0 lb=0:    252 shell pairs
          la=1 lb=0:    264 shell pairs
          la=1 lb=1:     78 shell pairs
          la=2 lb=0:     44 shell pairs
          la=2 lb=1:     24 shell pairs
          la=2 lb=2:      3 shell pairs

Checking whether 4 symmetric matrices of dimension 68 fit in memory
:Max Core in MB      =  10000.00
 MB in use           =      2.15
 MB left             =   9997.85
 MB needed           =      0.07
 Data fit in memory  = YES
Calculating RI/J V-Matrix + Cholesky decomp.... done (  0.0 sec)
Calculating Nuclear repulsion               ... done (  0.0 sec) ENN=     42.205024386012 Eh

Diagonalization of the overlap matrix:
Smallest eigenvalue                        ... 9.490e-04
Time for diagonalization                   ...    0.001 sec
Threshold for overlap eigenvalues          ... 1.000e-07
Number of eigenvalues below threshold      ... 0
Time for construction of square roots      ...    0.000 sec
Total time needed                          ...    0.003 sec

-------------------
DFT GRID GENERATION
-------------------

General Integration Accuracy     IntAcc      ... 4.388
Radial Grid Type                 RadialGrid  ... OptM3 with GC (2021)
Angular Grid (max. ang.)         AngularGrid ... 4 (Lebedev-302)
Angular grid pruning method      GridPruning ... 4 (adaptive)
Weight generation scheme         WeightScheme... mBecke (2022)
Basis function cutoff            BFCut       ... 1.0000e-11
Integration weight cutoff        WCut        ... 1.0000e-14
Partially contracted basis set               ... off
Rotationally invariant grid construction     ... off
Angular grids for H and He will be reduced by one unit

Total number of grid points                  ...    31678
Total number of batches                      ...      498
Average number of points per batch           ...       63
Average number of grid points per atom       ...     3960
Grids setup in   0.1 sec
Initializing property integral containers    ... done (  0.0 sec)

SHARK setup successfully completed in   0.2 seconds

Maximum memory used throughout the entire STARTUP-calculation: 8.0 MB


           ************************************************************
           *        Program running with 16 parallel MPI-processes    *
           *              working on a common directory               *
           ************************************************************
Occupation numbers will be reassigned to an Aufbau configuration
             **** ENERGY FILE WAS UPDATED (ethane-scan.en.tmp) ****
Finished Guess after   0.2 sec
Maximum memory used throughout the entire GUESS-calculation: 4.4 MB


           ************************************************************
           *        Program running with 16 parallel MPI-processes    *
           *              working on a common directory               *
           ************************************************************
----------------------------------------D-I-I-S--------------------------------------------
Iteration    Energy (Eh)           Delta-E    RMSDP     MaxDP     DIISErr   Damp  Time(sec)
-------------------------------------------------------------------------------------------
               ***  Starting incremental Fock matrix formation  ***
                              *** Initializing SOSCF ***
---------------------------------------S-O-S-C-F--------------------------------------
Iteration    Energy (Eh)           Delta-E    RMSDP     MaxDP     MaxGrad    Time(sec)
--------------------------------------------------------------------------------------
    1    -79.7948520760005522     0.00e+00  7.86e-04  1.60e-03  4.23e-04     0.1
               *** Restarting incremental Fock matrix formation ***
    2    -79.7949030902849188    -5.10e-05  3.61e-04  6.60e-04  5.16e-04     0.1
    3    -79.7949036410424526    -5.51e-07  1.52e-04  3.39e-04  5.60e-04     0.1
    4    -79.7949069262844546    -3.29e-06  3.23e-05  7.87e-05  5.00e-05     0.1
    5    -79.7949069611925381    -3.49e-08  5.34e-06  1.31e-05  1.66e-05     0.1
    6    -79.7949069642943982    -3.10e-09  1.56e-06  3.36e-06  2.12e-06     0.1
                 **** Energy Check signals convergence ****

               *****************************************************
               *                     SUCCESS                       *
               *           SCF CONVERGED AFTER   6 CYCLES          *
               *****************************************************

             **** ENERGY FILE WAS UPDATED (ethane-scan.en.tmp) ****

----------------
TOTAL SCF ENERGY
----------------

Total Energy       :        -79.79490696387364 Eh           -2171.32981 eV

Components:
Nuclear Repulsion  :         42.20502438601191 Eh            1148.45710 eV
Electronic Energy  :       -121.99993134988554 Eh           -3319.78691 eV
One Electron Energy:       -189.27910484753082 Eh           -5150.54629 eV
Two Electron Energy:         67.27917349764527 Eh            1830.75938 eV

Virial components:
Potential Energy   :       -159.12855884125293 Eh           -4330.10822 eV
Kinetic Energy     :         79.33365187737928 Eh            2158.77842 eV
Virial Ratio       :          2.00581411640053

DFT components:
N(Alpha)           :        8.999998608211 electrons
N(Beta)            :        8.999998608211 electrons
N(Total)           :       17.999997216423 electrons
E(X)               :      -12.510664053343 Eh       
E(C)               :       -0.528685447699 Eh       
E(XC)              :      -13.039349501042 Eh       

---------------
SCF CONVERGENCE
---------------

  Last Energy change         ...    3.1019e-09  Tolerance :   1.0000e-08
  Last MAX-Density change    ...    3.3591e-06  Tolerance :   1.0000e-07
  Last RMS-Density change    ...    1.5589e-06  Tolerance :   5.0000e-09
  Last DIIS Error            ...    2.7510e-03  Tolerance :   5.0000e-07
  Last Orbital Gradient      ...    2.1207e-06  Tolerance :   1.0000e-05
  Last Orbital Rotation      ...    4.4486e-06  Tolerance :   1.0000e-05


Total SCF time: 0 days 0 hours 0 min 0 sec 
Finished LeanSCF after   0.7 sec

Maximum memory used throughout the entire LEANSCF-calculation: 3.6 MB


-------------------------------------------------------------------------------
                          DFT DISPERSION CORRECTION                            
                                                                               
                                DFTD4 V3.4.0                                   
-------------------------------------------------------------------------------
-------------------------   ----------------
Dispersion correction           -0.000882393
-------------------------   ----------------

------------------   -----------------
gCP correction             0.003969121
------------------   -----------------

-------------------------   --------------------
FINAL SINGLE POINT ENERGY       -79.791820235926
-------------------------   --------------------



           ************************************************************
           *        Program running with 16 parallel MPI-processes    *
           *              working on a common directory               *
           ************************************************************
------------------------------------------------------------------------------
                         ORCA SCF GRADIENT CALCULATION
------------------------------------------------------------------------------

Nuc. rep. gradient        (SHARK) ... done (  0.0 sec)
HCore & Overlap gradient  (SHARK) ... done (  0.0 sec)
Split-RIJ-J gradient      (SHARK) ... done (  0.0 sec)
XC gradient                       ... done (  0.1 sec)
Dispersion correction             ... done (  0.1 sec)

-------------------
DISPERSION GRADIENT
-------------------

   1   C   :   -0.000011936    0.000000112   -0.000000261
   2   C   :    0.000011936   -0.000000112    0.000000261
   3   H   :   -0.000004843   -0.000000010    0.000000405
   4   H   :   -0.000004822    0.000000515   -0.000000312
   5   H   :   -0.000004829   -0.000000369   -0.000000409
   6   H   :    0.000004829    0.000000369    0.000000409
   7   H   :    0.000004843    0.000000010   -0.000000405
   8   H   :    0.000004822   -0.000000515    0.000000312

Difference to translation invariance:
           :   -0.0000000000   -0.0000000000    0.0000000000

Difference to rotation invariance:
           :    0.0000000000    0.0000000000    0.0000000000

Norm of the Dispersion gradient    ...    0.0000206597
RMS gradient                       ...    0.0000042171
MAX gradient                       ...    0.0000119363
gCP correction                   ... done

------------------
CARTESIAN GRADIENT
------------------

   1   C   :   -0.000928534    0.000007582   -0.000023906
   2   C   :    0.000928741   -0.000007745    0.000023716
   3   H   :    0.000707858   -0.000041235    0.000322137
   4   H   :    0.000720542    0.000276979   -0.000104933
   5   H   :    0.000722554   -0.000257693   -0.000170193
   6   H   :   -0.000722624    0.000257645    0.000170263
   7   H   :   -0.000707914    0.000041389   -0.000322141
   8   H   :   -0.000720623   -0.000276923    0.000105057

Difference to translation invariance:
           :   -0.0000000000   -0.0000000000    0.0000000000

Difference to rotation invariance:
           :    0.0000253147   -0.0000250062    0.0000289470

Norm of the Cartesian gradient     ...    0.0023212269
RMS gradient                       ...    0.0004738184
MAX gradient                       ...    0.0009287413

-------
TIMINGS
-------

Total SCF gradient time     ....        0.273 sec

Densities                   ....       0.000 sec  (  0.1%)
One electron gradient       ....       0.024 sec  (  8.7%)
RI-J Coulomb gradient       ....       0.034 sec  ( 12.6%)
XC gradient                 ....       0.090 sec  ( 32.8%)

Maximum memory used throughout the entire SCFGRAD-calculation: 24.2 MB
------------------------------------------------------------------------------
                         ORCA GEOMETRY RELAXATION STEP
------------------------------------------------------------------------------

Reading the OPT-File                    .... done
Getting information on internals        .... done
Copying old internal coords+grads       .... done
Making the new internal coordinates     .... (2022 redundants) done
Validating the new internal coordinates .... (2022 redundants) done
Calculating the B-matrix                .... done
Calculating the G,G- and P matrices     .... done
Transforming gradient to internals      .... done
Projecting the internal gradient        .... done
Number of atoms                         ....   8
Number of internal coordinates          ....  25
Current Energy                          ....   -79.791820236 Eh
Current gradient norm                   ....     0.002321227 Eh/bohr
Maximum allowed component of the step   ....  0.300
Current trust radius                    ....  0.300
Updating the Hessian (BFGS)             .... done
Forming the augmented Hessian           .... done
Diagonalizing the augmented Hessian     .... done
Last element of RFO vector              ....  0.999923681
Lowest eigenvalues of augmented Hessian:
 -0.000036807  0.051724590  0.118537035  0.134657289  0.239784647
Length of the computed step             ....  0.012355402
The final length of the internal step   ....  0.012355402
Converting the step to Cartesian space:
 Initial RMS(Int)=    0.0024710804
Transforming coordinates:
 Iter   0:  RMS(Cart)=    0.0044356494 RMS(Int)=    0.0024745197
Imposing constraints:
 Iter   0:  RMS(Cart)=    0.0000000015 RMS(Int)=    0.0000000074
CONVERGED
done
Storing new coordinates                 .... done
The predicted energy change is          ....    -0.000018407
Previously predicted energy change      ....    -0.000266531
Actually observed energy change         ....    -0.000316950
Ratio of predicted to observed change   ....     1.189166586
New trust radius                        ....     0.450000000

                                .--------------------.
          ----------------------|Geometry convergence|-------------------------
          Item                value                   Tolerance       Converged
          ---------------------------------------------------------------------
          Energy change      -0.0003169500            0.0000050000      NO
          RMS gradient        0.0005969418            0.0001000000      NO
          MAX gradient        0.0012227140            0.0003000000      NO
          RMS step            0.0024710804            0.0020000000      NO
          MAX step            0.0043682883            0.0040000000      NO
          -------------------------------------------------------------------------
          ........................................................
          Max(Bonds)      0.0023      Max(Angles)    0.20
          Max(Dihed)        0.00      Max(Improp)    0.00
          ---------------------------------------------------------------------

The optimization has not yet converged - more geometry cycles are needed


    ---------------------------------------------------------------------------
                         Redundant Internal Coordinates
                            (Angstroem and degrees)

        Definition                    Value    dE/dq     Step     New-Value
    ----------------------------------------------------------------------------
     1. B(C   1,C   0)                1.5269 -0.001223  0.0023    1.5292   
     2. B(H   2,C   0)                1.0947  0.000033 -0.0000    1.0946   
     3. B(H   3,C   0)                1.0947  0.000032 -0.0000    1.0946   
     4. B(H   4,C   0)                1.0947  0.000032 -0.0000    1.0947   
     5. B(H   5,C   1)                1.0947  0.000032 -0.0000    1.0947   
     6. B(H   6,C   1)                1.0947  0.000033 -0.0000    1.0946   
     7. B(H   7,C   1)                1.0947  0.000032 -0.0000    1.0946   
     8. A(H   2,C   0,H   3)          107.91  0.000803   -0.19    107.71   
     9. A(H   3,C   0,H   4)          107.91  0.000808   -0.20    107.71   
    10. A(H   2,C   0,H   4)          107.91  0.000807   -0.20    107.71   
    11. A(C   1,C   0,H   3)          110.99 -0.000763    0.19    111.18   
    12. A(C   1,C   0,H   2)          110.99 -0.000763    0.19    111.18   
    13. A(C   1,C   0,H   4)          111.00 -0.000768    0.19    111.18   
    14. A(C   0,C   1,H   5)          111.00 -0.000767    0.19    111.18   
    15. A(C   0,C   1,H   6)          110.99 -0.000764    0.19    111.18   
    16. A(H   5,C   1,H   6)          107.91  0.000807   -0.20    107.71   
    17. A(C   0,C   1,H   7)          110.99 -0.000763    0.19    111.18   
    18. A(H   5,C   1,H   7)          107.90  0.000810   -0.20    107.71   
    19. A(H   6,C   1,H   7)          107.91  0.000802   -0.19    107.71   
    20. D(H   5,C   1,C   0,H   4)   -180.00  0.000001    0.00   -180.00   
    21. D(H   6,C   1,C   0,H   2)   -180.00  0.000001    0.00   -180.00   
    22. D(H   6,C   1,C   0,H   3)    -60.00 -0.000001    0.00    -60.00   
    23. D(H   6,C   1,C   0,H   4)     60.00  0.000000    0.00     60.00   
    24. D(H   5,C   1,C   0,H   2)    -60.00  0.000001    0.00    -60.00 C 
[...]
Two Electron Energy:         67.25569613043923 Eh            1830.12053 eV

Virial components:
Potential Energy   :       -159.12559234888602 Eh           -4330.02750 eV
Kinetic Energy     :         79.33065494714380 Eh            2158.69687 eV
Virial Ratio       :          2.00585249743504

DFT components:
N(Alpha)           :        9.000000337431 electrons
N(Beta)            :        9.000000337431 electrons
N(Total)           :       18.000000674861 electrons
E(X)               :      -12.509972257774 Eh       
E(C)               :       -0.528649640655 Eh       
E(XC)              :      -13.038621898429 Eh       

---------------
SCF CONVERGENCE
---------------

  Last Energy change         ...    8.5830e-09  Tolerance :   1.0000e-08
  Last MAX-Density change    ...    1.0298e-05  Tolerance :   1.0000e-07
  Last RMS-Density change    ...    4.7154e-06  Tolerance :   5.0000e-09
  Last DIIS Error            ...    1.2464e-04  Tolerance :   5.0000e-07
  Last Orbital Gradient      ...    7.9159e-06  Tolerance :   1.0000e-05
  Last Orbital Rotation      ...    1.2160e-05  Tolerance :   1.0000e-05


----------------
ORBITAL ENERGIES
----------------

  NO   OCC          E(Eh)            E(eV) 
   0   2.0000     -10.018222      -272.6097 
   1   2.0000     -10.018094      -272.6062 
   2   2.0000      -0.716708       -19.5026 
   3   2.0000      -0.580131       -15.7862 
   4   2.0000      -0.400328       -10.8935 
   5   2.0000      -0.400271       -10.8919 
   6   2.0000      -0.336777        -9.1642 
   7   2.0000      -0.309084        -8.4106 
   8   2.0000      -0.309038        -8.4093 
   9   0.0000       0.108312         2.9473 
  10   0.0000       0.126202         3.4341 
  11   0.0000       0.181039         4.9263 
  12   0.0000       0.181077         4.9273 
  13   0.0000       0.193314         5.2603 
  14   0.0000       0.193337         5.2610 
  15   0.0000       0.209925         5.7123 
  16   0.0000       0.219852         5.9825 
  17   0.0000       0.227478         6.1900 
  18   0.0000       0.227519         6.1911 
  19   0.0000       0.258704         7.0397 
*Only the first 10 virtual orbitals were printed.

                    ********************************
                    * MULLIKEN POPULATION ANALYSIS *
                    ********************************

-----------------------
MULLIKEN ATOMIC CHARGES
-----------------------
   0 C :   -0.411940
   1 C :   -0.411953
   2 H :    0.137311
   3 H :    0.137322
   4 H :    0.137312
   5 H :    0.137311
   6 H :    0.137317
   7 H :    0.137319
Sum of atomic charges:    0.0000000

--------------------------------
MULLIKEN REDUCED ORBITAL CHARGES
--------------------------------
  0 C s       :     3.275394  s :     3.275394
      pz      :     1.085335  p :     3.108496
      px      :     0.937640
      py      :     1.085520
      dz2     :     0.005248  d :     0.028050
      dxz     :     0.005935
      dyz     :     0.003900
      dx2y2   :     0.006622
      dxy     :     0.006345

  1 C s       :     3.275394  s :     3.275394
      pz      :     1.085411  p :     3.108509
      px      :     0.937646
      py      :     1.085452
      dz2     :     0.005242  d :     0.028050
      dxz     :     0.005940
      dyz     :     0.003902
      dx2y2   :     0.006626
      dxy     :     0.006341

  2 H s       :     0.844683  s :     0.844683
      pz      :     0.005765  p :     0.018006
      px      :     0.004567
      py      :     0.007674

  3 H s       :     0.844669  s :     0.844669
      pz      :     0.009821  p :     0.018009
      px      :     0.004387
      py      :     0.003801

  4 H s       :     0.844681  s :     0.844681
      pz      :     0.004649  p :     0.018007
      px      :     0.004597
      py      :     0.008761

  5 H s       :     0.844682  s :     0.844682
      pz      :     0.009817  p :     0.018006
      px      :     0.004388
      py      :     0.003801

  6 H s       :     0.844676  s :     0.844676
      pz      :     0.004649  p :     0.018007
      px      :     0.004595
      py      :     0.008763

  7 H s       :     0.844671  s :     0.844671
      pz      :     0.005768  p :     0.018009
      px      :     0.004567
      py      :     0.007674



                     *******************************
                     * LOEWDIN POPULATION ANALYSIS *
                     *******************************

----------------------
LOEWDIN ATOMIC CHARGES
----------------------
   0 C :   -0.439131
   1 C :   -0.439139
   2 H :    0.146378
   3 H :    0.146386
   4 H :    0.146372
   5 H :    0.146377
   6 H :    0.146383
   7 H :    0.146376

-------------------------------
LOEWDIN REDUCED ORBITAL CHARGES
-------------------------------
  0 C s       :     2.983209  s :     2.983209
      pz      :     1.158371  p :     3.392787
      px      :     1.075926
      py      :     1.158490
      dz2     :     0.012728  d :     0.063135
      dxz     :     0.012144
      dyz     :     0.009857
      dx2y2   :     0.015268
      dxy     :     0.013137

  1 C s       :     2.983209  s :     2.983209
      pz      :     1.158412  p :     3.392795
      px      :     1.075929
      py      :     1.158453
      dz2     :     0.012713  d :     0.063135
      dxz     :     0.012155
      dyz     :     0.009861
      dx2y2   :     0.015279
      dxy     :     0.013128

  2 H s       :     0.811240  s :     0.811240
      pz      :     0.013496  p :     0.042382
      px      :     0.010239
      py      :     0.018647

  3 H s       :     0.811220  s :     0.811220
      pz      :     0.024451  p :     0.042394
      px      :     0.009775
      py      :     0.008167

  4 H s       :     0.811243  s :     0.811243
      pz      :     0.010469  p :     0.042385
      px      :     0.010316
      py      :     0.021600

  5 H s       :     0.811239  s :     0.811239
      pz      :     0.024440  p :     0.042384
      px      :     0.009779
      py      :     0.008165

  6 H s       :     0.811230  s :     0.811230
      pz      :     0.010468  p :     0.042387
      px      :     0.010311
      py      :     0.021608

  7 H s       :     0.811234  s :     0.811234
      pz      :     0.013503  p :     0.042391
      px      :     0.010240
      py      :     0.018648



                      *****************************
                      * MAYER POPULATION ANALYSIS *
                      *****************************

  NA   - Mulliken gross atomic population
  ZA   - Total nuclear charge
  QA   - Mulliken gross atomic charge
  VA   - Mayer's total valence
  BVA  - Mayer's bonded valence
  FA   - Mayer's free valence

  ATOM       NA         ZA         QA         VA         BVA        FA
  0 C      6.4119     6.0000    -0.4119     3.7917     3.7917     0.0000
  1 C      6.4120     6.0000    -0.4120     3.7917     3.7917     0.0000
  2 H      0.8627     1.0000     0.1373     0.9641     0.9641    -0.0000
  3 H      0.8627     1.0000     0.1373     0.9641     0.9641    -0.0000
  4 H      0.8627     1.0000     0.1373     0.9641     0.9641    -0.0000
  5 H      0.8627     1.0000     0.1373     0.9641     0.9641     0.0000
  6 H      0.8627     1.0000     0.1373     0.9641     0.9641     0.0000
  7 H      0.8627     1.0000     0.1373     0.9641     0.9641     0.0000

  Mayer bond orders larger than 0.100000
B(  0-C ,  1-C ) :   0.9111 B(  0-C ,  2-H ) :   0.9753 B(  0-C ,  3-H ) :   0.9753 
B(  0-C ,  4-H ) :   0.9753 B(  1-C ,  5-H ) :   0.9753 B(  1-C ,  6-H ) :   0.9753 
B(  1-C ,  7-H ) :   0.9753 

-------
TIMINGS
-------

Total SCF time: 0 days 0 hours 0 min 0 sec 

Total time                  ....       0.591 sec
Sum of individual times     ....       0.511 sec  ( 86.5%)

SCF preparation             ....       0.235 sec  ( 39.7%)
Fock matrix formation       ....       0.145 sec  ( 24.6%)
  Startup                   ....       0.003 sec  (  2.4% of F)
  Split-RI-J                ....       0.036 sec  ( 24.4% of F)
  XC integration            ....       0.125 sec  ( 85.9% of F)
    XC Preparation          ....       0.000 sec  (  0.0% of XC)
    Basis function eval.    ....       0.014 sec  ( 11.3% of XC)
    Density eval.           ....       0.021 sec  ( 17.0% of XC)
    XC-Functional eval.     ....       0.017 sec  ( 13.3% of XC)
    XC-Potential eval.      ....       0.014 sec  ( 11.1% of XC)
Diagonalization             ....       0.000 sec  (  0.0%)
Density matrix formation    ....       0.006 sec  (  0.9%)
Total Energy calculation    ....       0.003 sec  (  0.6%)
Population analysis         ....       0.090 sec  ( 15.3%)
Orbital Transformation      ....       0.006 sec  (  1.0%)
Orbital Orthonormalization  ....       0.000 sec  (  0.0%)
DIIS solution               ....       0.007 sec  (  1.1%)
SOSCF solution              ....       0.019 sec  (  3.2%)
Finished LeanSCF after   0.7 sec

Maximum memory used throughout the entire LEANSCF-calculation: 5.8 MB


-------------------------------------------------------------------------------
                          DFT DISPERSION CORRECTION                            
                                                                               
                                DFTD4 V3.4.0                                   
-------------------------------------------------------------------------------
The R2SCAN3C composite method is recognized
Using three-body term ABC
Active option DFTDOPT                   ...         5   

-------------------------   ----------------
Dispersion correction           -0.000882087
-------------------------   ----------------

------------------   -----------------
gCP correction             0.003971642
------------------   -----------------

-------------------------   --------------------
FINAL SINGLE POINT ENERGY       -79.791847846936
-------------------------   --------------------

                                *** OPTIMIZATION RUN DONE ***


Storing optimized geometry in ethane-scan.005.xyz ... done
Storing optimized geometry and energy in ethane-scan.xyzall ... done
Storing actual gbw-file in ethane-scan.005.gbw ... done


           ************************************************************
           *        Program running with 16 parallel MPI-processes    *
           *              working on a common directory               *
           ************************************************************

------------------------------------------------------------------------------
                              ORCA PROPERTY CALCULATIONS
------------------------------------------------------------------------------

GBWName                                 ... ethane-scan.gbw
Number of atoms                         ...      8
Number of basis functions               ...     68
Max core memory                         ...  10000 MB

Electric properties:
Dipole moment                           ... YES
Quadrupole moment                       ...  NO
Static polarizability (Dipole/Dipole)   ...  NO
Static polarizability (Dipole/Quad.)    ...  NO
Static polarizability (Quad./Quad.)     ...  NO
Static polarizability (Velocity)        ...  NO
Static hyperpolarizability              ...  NO

Atomic electric properties:
Dipole moment                           ...  NO
Quadrupole moment                       ...  NO
Static polarizability                   ...  NO

Choice of electric origin               ... Center of mass
Position of electric origin             ...    -0.000008    -0.000009     0.000011

General magnetic properties:
Magnetizability                         ...  NO

EPR properties:
g-Tensor (aka g-matrix)                 ...  NO
Zero-Field splitting spin-orbit         ...  NO
Zero-field splitting spin-spin          ...  NO
Hyperfine couplings                     ...  NO (   0 nuclei)
Quadrupole couplings                    ...  NO (   0 nuclei)
Contact density                         ...  NO (   0 nuclei)

NMR properties:
Chemical shifts                         ...  NO (   0 nuclei)
Spin-rotation constants                 ...  NO (   0 nuclei)
Spin-spin couplings                     ...  NO (   0 nuclei,    0 pairs)

Choice of magnetic origin               ... GIAO
Position of magnetic origin             ...     0.000000     0.000000     0.000000

Properties with geometric perturbations:
SCF Hessian                             ...  NO
IR spectrum                             ...  NO
VCD spectrum                            ...  NO
X-ray spectroscopy properties:
SCF XES/XAS/RIXS spectra                ...  NO

SCF SOC stabilization energy            ...  NO
Diagonal Born-Oppenheimer correction    ...  NO

-------------
DIPOLE MOMENT
-------------

Method             : SCF
Type of density    : Electron Density
Multiplicity       :   1
Irrep              :   0
Energy             :   -79.7949374017422031 Eh
Basis              : AO
                                X                 Y                 Z
Electronic contribution:     -0.000034320      -0.000054048       0.000012783
Nuclear contribution   :      0.000036675       0.000039844      -0.000047689
                        -----------------------------------------
Total Dipole Moment    :      0.000002354      -0.000014204      -0.000034905
                        -----------------------------------------
Magnitude (a.u.)       :      0.000037758
Magnitude (Debye)      :      0.000095974



--------------------
Rotational spectrum 
--------------------
 
Rotational constants in cm-1:             2.678976             0.666047             0.666018 
Rotational constants in MHz :         80313.683408         19967.577145         19966.716793 

Dipole components along the rotational axes: 
x,y,z [a.u.] :    -0.000002    -0.000036     0.000012 
x,y,z [Debye]:    -0.000004    -0.000091     0.000032 

 

Dipole moment calculation done in   0.0 sec 

Maximum memory used throughout the entire PROP-calculation: 3.8 MB
                   **** RELAXED SURFACE SCAN DONE ***

                    SUMMARY OF THE CALCULATED SURFACE

----------------------------
RELAXED SURFACE SCAN RESULTS
----------------------------

Column   1: NONAME

The Calculated Surface using the 'Actual Energy'
 -60.00000000 -79.79184680
 -30.00000000 -79.78974712
   0.00000000 -79.78743272
  30.00000000 -79.78974733
  60.00000000 -79.79184785

The Calculated Surface using the SCF energy
 -60.00000000 -79.79493686
 -30.00000000 -79.79285899
   0.00000000 -79.79056945
  30.00000000 -79.79285969
  60.00000000 -79.79493740


--------------------------------
SUGGESTED CITATIONS FOR THIS RUN
--------------------------------

Below you find a list of papers that are relevant to this ORCA run
We neither can nor want to force you to cite these papers, but we appreciate if you do
You receive ORCA, which is the product of decades of hard work by many enthusiastic individuals, for free
The only thing we kindly ask in return is that you cite our papers,
We deeply appreciate it, if you show your appreciation for ORCA by not just citing the generic ORCA reference.

Please note that relegating all ORCA citations to the supporting information does *not* help us.
SI sections are not indexed - citations you put there will not count into any citation statistics
But we need these citations in order to attract the funding resources that allow us to do what we are doing

Therefore, if you are a happy ORCA user, please consider citing a few of the papers listed below in the main body of your paper

In addition to the list printed below, the program has created the file ethane-scan.bibtex that contains the list in bibtex format
You can import this file easily into all common literature databanks and citation aid programs

It goes without saying that in many instances, there are alternative algorithms to achieve similar
results as the ones you have gotten from ORCA. It is, of course, also the case that in some instances
ORCA just re-implements algorithms worked out by others. We are fully aware of that and we are also
fully appreciative of our colleagues work. Hence this citation list should not be read as indicating
that the listed papers, which are focused on our own work, are the only ones worth citing. It simply
meant to make it easier for users to cite ORCA specific papers. It is not a substitute for doing your
own literature research and citing the relevant literature in a scientifically appropriate manner.

List of essential papers. We consider these as the minimum necessary citations

  1. Grimme, S.; Hansen, A.; Ehlert, S.; Mewes, J.
     r2SCAN-3c: A 'Swiss army knife' composite electronic-structure method
     J. Chem. Phys. 2021 154 , 064103
     doi.org/10.1063/5.0040021
  2. Neese, F.
     Software update: the ORCA program system, version 6.0
     WIRES Comput. Molec. Sci. 2025 15(1), e70019
     doi.org/10.1002/wcms.70019

List of papers to cite with high priority. The work reported in these papers was absolutely
necessary for this run to complete.
Our perspective: the developers of density functionals and basis sets usually get cited in chemistry papers
Good! But without the algorithms to do something with them, the functionals or basis sets would not do anything.
Hence, in our opinion, the algorithm design and method developments papers are equally worthy of getting cited

  1. Neese, F.
     An improvement of the resolution of the identity approximation for the formation of the Coulomb matrix
     J. Comp. Chem. 2003 24(14), 1740-1747
     doi.org/10.1002/jcc.10318
  2. Caldeweyher, E.; Bannwarth, C.; Grimme, S.
     Extension of the D3 dispersion coefficient model
     J. Chem. Phys. 2017 147 , 034112
     doi.org/10.1063/1.4993215
  3. Lehtola, S.; Steigemann, C.; Oliveira, M.; Marques, M.
     Recent developments in Libxc - A comprehensive library of functionals for density functional theory
     Software X 2018 7 , 
     doi.org/10.1016/j.softx.2017.11.002
  4. Caldeweyher, E.; Ehlert, S.; Hansen, A.; Neugebauer, H.; Spicher, S.; Bannwarth, C.; Grimme, S.
     A generally applicable atomic-charge dependent London dispersion correction
     J. Chem. Phys. 2019 150 , 154122
     doi.org/10.1063/1.5090222
  5. Neese, F.
     The SHARK Integral Generation and Digestion System
     J. Comp. Chem. 2022 44(3), 381
     doi.org/10.1002/jcc.26942

List of suggested additional citations. These are papers that are important in the 'surrounding' of 
of this run, or papers that preceded the highly important papers. If you like your results we are grateful for a citation.

  1. Neese, F.
     The ORCA program system
     WIRES Comput. Molec. Sci. 2012 2(1), 73-78
     doi.org/10.1002/wcms.81
  2. Neese, F.
     Software update: the ORCA program system, version 4.0
     WIRES Comput. Molec. Sci. 2018 8(1), 1-6
     doi.org/10.1002/wcms.1327
  3. Neese, F.; Wennmohs, F.; Becker, U.; Riplinger, C.
     The ORCA quantum chemistry program package
     J. Chem. Phys. 2020 152(22), 224108
     doi.org/10.1063/5.0004608
  4. Neese, F.
     Software update: The ORCA program system—Version 5.0
     WIRES Comput. Molec. Sci. 2022 12(1), e1606
     doi.org/10.1002/wcms.1606

List of optional additional citations

  1. Neese, F.
     Approximate second-order SCF convergence for spin unrestricted wavefunctions
     Chem. Phys. Lett. 2000 325(1-3), 93-98
     doi.org/10.1016/s0009-2614(00)00662-x

Timings for individual modules:

Sum of individual times          ...      114.529 sec (=   1.909 min)
Startup calculation              ...       25.014 sec (=   0.417 min)  21.8 %
SCF iterations                   ...       59.798 sec (=   0.997 min)  52.2 %
Property calculations            ...        2.728 sec (=   0.045 min)   2.4 %
SCF Gradient evaluation          ...       26.825 sec (=   0.447 min)  23.4 %
Geometry relaxation              ...        0.164 sec (=   0.003 min)   0.1 %
                             ****ORCA TERMINATED NORMALLY****
TOTAL RUN TIME: 0 days 0 hours 2 minutes 19 seconds 940 msec
